m,d_star_dFS,theta_dFS,H,Rex_Cf,lambda,Tau,F_theta
-0.0904,3.450792038162236,0.8679555732733699,3.975770355558717,0.00433349609375,-0.0681025576967379,0.0037612820863286906,0.8214530550164444
-0.08,2.6854101835453124,0.8312752449360888,3.2304705329602057,0.0996385821698359,-0.05528148262748436,0.08282708679831495,0.743950505399447
-0.05,2.123035795930245,0.7525618894460104,2.8210780079404403,0.2124654105702328,-0.02831746987232746,0.15989337082065674,0.5928282041253012
0.0,1.7235084583555746,0.6648479154920285,2.5923349057657377,0.331381487459075,0.0,0.22031829116981377,0.44063658233962755
0.3,1.0202474932406567,0.44203176730030647,2.3080863610137854,0.7254809714331578,0.05861762499078968,0.3206856359453419,0.13631169041500013
0.6,0.7979878765452444,0.3547210705609842,2.2496207380160493,0.9751438722622244,0.07549622273995843,0.3459040783198398,0.05014752904446729
1.0,0.6482179207846084,0.2921193485831933,2.2190174116453676,1.2323887445720385,0.08533371381666918,0.36000459726564327,-3.965425449381499e-05
2.0,0.4768219823822797,0.21738618411541274,2.1934327810323473,1.714434677866732,0.09451350608852026,0.37269441253658575,-0.04728324429063102
