/*--------------------------------*- C++ -*----------------------------------*\
| =========                 |                                                 |
| \\      /  F ield         | OpenFOAM: The Open Source CFD Toolbox           |
|  \\    /   O peration     | Version:  2212                                  |
|   \\  /    A nd           | Website:  www.openfoam.com                      |
|    \\/     M anipulation  |                                                 |
\*---------------------------------------------------------------------------*/
FoamFile
{
    version     2.0;
    format      ascii;
    arch        "LSB;label=32;scalar=64";
    class       volScalarField;
    location    "100";
    object      p;
}
// * * * * * * * * * * * * * * * * * * * * * * * * * * * * * * * * * * * * * //

dimensions      [0 2 -2 0 0 0 0];

internalField   nonuniform List<scalar> 
10000
(
3.37522e-07
3.38088e-07
3.39234e-07
3.41104e-07
3.43935e-07
3.48234e-07
3.54873e-07
3.65228e-07
3.89643e-07
4.52557e-07
3.38088e-07
3.38665e-07
3.39821e-07
3.41705e-07
3.44554e-07
3.48867e-07
3.55441e-07
3.65816e-07
3.90856e-07
4.51802e-07
3.39234e-07
3.39821e-07
3.40996e-07
3.42908e-07
3.45794e-07
3.50148e-07
3.56747e-07
3.67145e-07
3.92295e-07
4.52994e-07
3.41104e-07
3.41705e-07
3.42908e-07
3.44862e-07
3.47806e-07
3.52228e-07
3.58894e-07
3.69342e-07
3.94522e-07
4.55217e-07
3.43935e-07
3.44554e-07
3.45794e-07
3.47806e-07
3.50828e-07
3.55347e-07
3.62121e-07
3.72661e-07
3.97886e-07
4.58631e-07
3.48234e-07
3.48867e-07
3.50149e-07
3.52228e-07
3.55347e-07
3.59997e-07
3.66927e-07
3.77617e-07
4.02926e-07
4.63774e-07
3.54873e-07
3.55441e-07
3.56748e-07
3.58894e-07
3.62121e-07
3.66927e-07
3.74066e-07
3.84982e-07
4.10449e-07
4.715e-07
3.65228e-07
3.65816e-07
3.67145e-07
3.69342e-07
3.72661e-07
3.77617e-07
3.84982e-07
3.96212e-07
4.22015e-07
4.83453e-07
3.89643e-07
3.90856e-07
3.92295e-07
3.94521e-07
3.97886e-07
4.02926e-07
4.10449e-07
4.22015e-07
4.48026e-07
5.08404e-07
4.52557e-07
4.51802e-07
4.52994e-07
4.55217e-07
4.58631e-07
4.63774e-07
4.715e-07
4.83453e-07
5.08404e-07
5.62759e-07
3.3722e-07
3.37749e-07
3.38854e-07
3.40637e-07
3.43255e-07
3.47022e-07
3.52382e-07
3.58774e-07
3.67072e-07
3.86681e-07
3.37749e-07
3.38285e-07
3.39397e-07
3.4119e-07
3.43823e-07
3.47616e-07
3.5296e-07
3.59344e-07
3.68253e-07
3.87855e-07
3.38854e-07
3.39397e-07
3.40528e-07
3.42348e-07
3.45018e-07
3.48855e-07
3.54235e-07
3.60624e-07
3.69621e-07
3.89254e-07
3.40637e-07
3.4119e-07
3.42348e-07
3.44212e-07
3.46938e-07
3.50843e-07
3.56291e-07
3.62725e-07
3.71732e-07
3.91343e-07
3.43255e-07
3.43823e-07
3.45018e-07
3.46938e-07
3.49742e-07
3.53743e-07
3.59297e-07
3.65822e-07
3.74843e-07
3.9444e-07
3.47022e-07
3.47616e-07
3.48855e-07
3.50843e-07
3.53743e-07
3.57872e-07
3.63583e-07
3.70262e-07
3.79336e-07
3.98932e-07
3.52382e-07
3.5296e-07
3.54235e-07
3.56291e-07
3.59297e-07
3.63583e-07
3.69511e-07
3.76447e-07
3.85675e-07
4.05296e-07
3.58774e-07
3.59344e-07
3.60624e-07
3.62725e-07
3.65822e-07
3.70262e-07
3.76447e-07
3.83809e-07
3.93613e-07
4.13655e-07
3.67072e-07
3.68253e-07
3.69621e-07
3.71732e-07
3.74843e-07
3.79336e-07
3.85675e-07
3.93613e-07
4.04879e-07
4.26233e-07
3.86681e-07
3.87855e-07
3.89253e-07
3.91343e-07
3.9444e-07
3.98932e-07
4.05296e-07
4.13655e-07
4.26233e-07
4.49152e-07
3.35569e-07
3.36023e-07
3.3694e-07
3.38361e-07
3.40309e-07
3.42805e-07
3.45867e-07
3.48712e-07
3.49926e-07
3.53467e-07
3.36023e-07
3.36485e-07
3.37412e-07
3.38848e-07
3.40817e-07
3.43349e-07
3.46436e-07
3.49226e-07
3.50543e-07
3.53982e-07
3.3694e-07
3.37412e-07
3.38359e-07
3.39823e-07
3.41828e-07
3.44404e-07
3.47528e-07
3.5031e-07
3.51614e-07
3.55038e-07
3.38361e-07
3.38848e-07
3.39823e-07
3.41331e-07
3.43392e-07
3.46034e-07
3.49224e-07
3.52046e-07
3.53345e-07
3.56745e-07
3.40309e-07
3.40817e-07
3.41828e-07
3.43393e-07
3.45532e-07
3.48269e-07
3.51565e-07
3.54481e-07
3.55803e-07
3.59191e-07
3.42805e-07
3.43349e-07
3.44404e-07
3.46034e-07
3.48269e-07
3.51135e-07
3.54594e-07
3.57689e-07
3.59117e-07
3.6253e-07
3.45867e-07
3.46436e-07
3.47529e-07
3.49224e-07
3.51565e-07
3.54594e-07
3.58287e-07
3.61692e-07
3.634e-07
3.66925e-07
3.48712e-07
3.49225e-07
3.50309e-07
3.52046e-07
3.54481e-07
3.57689e-07
3.61691e-07
3.65615e-07
3.68078e-07
3.72156e-07
3.49926e-07
3.50543e-07
3.51614e-07
3.53345e-07
3.55803e-07
3.59117e-07
3.634e-07
3.68078e-07
3.72336e-07
3.7839e-07
3.53467e-07
3.53982e-07
3.55038e-07
3.56745e-07
3.59191e-07
3.6253e-07
3.66925e-07
3.72156e-07
3.7839e-07
3.87951e-07
3.32733e-07
3.33066e-07
3.33714e-07
3.34663e-07
3.3585e-07
3.37145e-07
3.38411e-07
3.39269e-07
3.38752e-07
3.38512e-07
3.33066e-07
3.33406e-07
3.34065e-07
3.35029e-07
3.36233e-07
3.37549e-07
3.38834e-07
3.39653e-07
3.39108e-07
3.38775e-07
3.33714e-07
3.34065e-07
3.34743e-07
3.35735e-07
3.36973e-07
3.38327e-07
3.39649e-07
3.40478e-07
3.39917e-07
3.39564e-07
3.34663e-07
3.35029e-07
3.35735e-07
3.36771e-07
3.38064e-07
3.39484e-07
3.40874e-07
3.41754e-07
3.41203e-07
3.4084e-07
3.3585e-07
3.36233e-07
3.36973e-07
3.38064e-07
3.39437e-07
3.40956e-07
3.42461e-07
3.43453e-07
3.4296e-07
3.42605e-07
3.37145e-07
3.37549e-07
3.38327e-07
3.39484e-07
3.40956e-07
3.42615e-07
3.44302e-07
3.45508e-07
3.45187e-07
3.44901e-07
3.38411e-07
3.38834e-07
3.39649e-07
3.40874e-07
3.42461e-07
3.44301e-07
3.46257e-07
3.47827e-07
3.47877e-07
3.47781e-07
3.39269e-07
3.39653e-07
3.40477e-07
3.41754e-07
3.43452e-07
3.45508e-07
3.47827e-07
3.4995e-07
3.5072e-07
3.51137e-07
3.38752e-07
3.39108e-07
3.39917e-07
3.41203e-07
3.4296e-07
3.45187e-07
3.47877e-07
3.5072e-07
3.5285e-07
3.54753e-07
3.38512e-07
3.38775e-07
3.39564e-07
3.4084e-07
3.42605e-07
3.44901e-07
3.47781e-07
3.51137e-07
3.54753e-07
3.5929e-07
3.29044e-07
3.29247e-07
3.29628e-07
3.30138e-07
3.30673e-07
3.31064e-07
3.31134e-07
3.30711e-07
3.29317e-07
3.27726e-07
3.29247e-07
3.29456e-07
3.29847e-07
3.3037e-07
3.3092e-07
3.31328e-07
3.31418e-07
3.30998e-07
3.29609e-07
3.28022e-07
3.29628e-07
3.29847e-07
3.30255e-07
3.30806e-07
3.31391e-07
3.31839e-07
3.31972e-07
3.31583e-07
3.30202e-07
3.28606e-07
3.30138e-07
3.3037e-07
3.30806e-07
3.314e-07
3.32043e-07
3.3256e-07
3.32769e-07
3.32447e-07
3.31092e-07
3.29486e-07
3.30673e-07
3.3092e-07
3.31391e-07
3.32043e-07
3.32768e-07
3.33393e-07
3.3373e-07
3.33538e-07
3.3226e-07
3.3066e-07
3.31064e-07
3.31328e-07
3.31839e-07
3.3256e-07
3.33392e-07
3.34171e-07
3.34714e-07
3.3476e-07
3.3367e-07
3.32131e-07
3.31134e-07
3.31418e-07
3.31972e-07
3.32769e-07
3.3373e-07
3.34714e-07
3.35558e-07
3.35991e-07
3.35275e-07
3.33923e-07
3.30711e-07
3.30998e-07
3.31583e-07
3.32447e-07
3.33538e-07
3.3476e-07
3.35991e-07
3.36969e-07
3.36883e-07
3.35989e-07
3.29317e-07
3.29609e-07
3.30202e-07
3.31092e-07
3.3226e-07
3.3367e-07
3.35275e-07
3.36883e-07
3.37819e-07
3.38058e-07
3.27726e-07
3.28022e-07
3.28606e-07
3.29486e-07
3.3066e-07
3.32131e-07
3.33923e-07
3.35989e-07
3.38058e-07
3.40196e-07
3.24681e-07
3.24768e-07
3.24913e-07
3.25048e-07
3.25059e-07
3.24788e-07
3.24095e-07
3.22958e-07
3.21241e-07
3.19416e-07
3.24768e-07
3.2486e-07
3.25015e-07
3.25164e-07
3.25192e-07
3.2494e-07
3.24271e-07
3.23149e-07
3.21435e-07
3.19626e-07
3.24913e-07
3.25015e-07
3.25188e-07
3.25365e-07
3.2543e-07
3.25223e-07
3.24601e-07
3.23517e-07
3.21816e-07
3.19993e-07
3.25048e-07
3.25164e-07
3.25365e-07
3.25586e-07
3.25712e-07
3.2558e-07
3.25042e-07
3.24035e-07
3.22366e-07
3.20527e-07
3.25059e-07
3.25192e-07
3.2543e-07
3.25712e-07
3.25926e-07
3.25909e-07
3.25512e-07
3.24646e-07
3.23059e-07
3.21218e-07
3.24788e-07
3.2494e-07
3.25223e-07
3.2558e-07
3.25909e-07
3.2606e-07
3.25881e-07
3.25258e-07
3.23853e-07
3.22064e-07
3.24095e-07
3.24271e-07
3.24601e-07
3.25042e-07
3.25512e-07
3.25881e-07
3.26013e-07
3.25768e-07
3.24703e-07
3.23089e-07
3.22958e-07
3.23149e-07
3.23517e-07
3.24035e-07
3.24646e-07
3.25258e-07
3.25768e-07
3.26019e-07
3.25489e-07
3.24284e-07
3.21241e-07
3.21435e-07
3.21816e-07
3.22366e-07
3.23059e-07
3.23853e-07
3.24703e-07
3.25489e-07
3.25749e-07
3.25429e-07
3.19416e-07
3.19626e-07
3.19993e-07
3.20527e-07
3.21218e-07
3.22064e-07
3.23089e-07
3.24284e-07
3.25429e-07
3.26472e-07
3.19806e-07
3.19797e-07
3.19747e-07
3.19586e-07
3.19212e-07
3.18507e-07
3.17416e-07
3.16045e-07
3.14425e-07
3.12824e-07
3.19797e-07
3.19792e-07
3.19752e-07
3.19605e-07
3.19249e-07
3.18566e-07
3.175e-07
3.16143e-07
3.14519e-07
3.12929e-07
3.19747e-07
3.19752e-07
3.1973e-07
3.19612e-07
3.19295e-07
3.18659e-07
3.17643e-07
3.16328e-07
3.14716e-07
3.13109e-07
3.19586e-07
3.19605e-07
3.19612e-07
3.1954e-07
3.19286e-07
3.1873e-07
3.17803e-07
3.16569e-07
3.14991e-07
3.13367e-07
3.19212e-07
3.19249e-07
3.19295e-07
3.19286e-07
3.19123e-07
3.18688e-07
3.17907e-07
3.16815e-07
3.1532e-07
3.13693e-07
3.18507e-07
3.18566e-07
3.18659e-07
3.1873e-07
3.18688e-07
3.18424e-07
3.1786e-07
3.17001e-07
3.15673e-07
3.14097e-07
3.17416e-07
3.175e-07
3.17643e-07
3.17803e-07
3.17907e-07
3.1786e-07
3.17592e-07
3.17072e-07
3.16035e-07
3.14619e-07
3.16045e-07
3.16143e-07
3.16328e-07
3.16569e-07
3.16815e-07
3.17001e-07
3.17072e-07
3.16966e-07
3.16352e-07
3.15276e-07
3.14425e-07
3.14519e-07
3.14716e-07
3.14991e-07
3.1532e-07
3.15673e-07
3.16035e-07
3.16352e-07
3.16323e-07
3.15904e-07
3.12824e-07
3.12929e-07
3.13109e-07
3.13367e-07
3.13693e-07
3.14097e-07
3.14619e-07
3.15276e-07
3.15904e-07
3.16431e-07
3.14595e-07
3.14511e-07
3.14314e-07
3.13943e-07
3.13321e-07
3.12384e-07
3.11153e-07
3.098e-07
3.08406e-07
3.071e-07
3.14511e-07
3.14431e-07
3.14244e-07
3.13887e-07
3.13283e-07
3.12369e-07
3.11162e-07
3.09827e-07
3.08429e-07
3.07131e-07
3.14314e-07
3.14244e-07
3.14076e-07
3.13748e-07
3.13184e-07
3.12318e-07
3.11164e-07
3.09871e-07
3.08487e-07
3.07171e-07
3.13943e-07
3.13887e-07
3.13748e-07
3.13467e-07
3.12967e-07
3.12182e-07
3.11118e-07
3.09907e-07
3.08557e-07
3.07225e-07
3.13321e-07
3.13283e-07
3.13184e-07
3.12967e-07
3.1256e-07
3.11896e-07
3.10973e-07
3.09898e-07
3.08626e-07
3.07294e-07
3.12384e-07
3.12369e-07
3.12318e-07
3.12182e-07
3.11896e-07
3.11397e-07
3.10678e-07
3.09813e-07
3.08689e-07
3.07407e-07
3.11153e-07
3.11162e-07
3.11164e-07
3.11118e-07
3.10973e-07
3.10678e-07
3.10224e-07
3.09645e-07
3.08759e-07
3.07618e-07
3.098e-07
3.09827e-07
3.09871e-07
3.09907e-07
3.09898e-07
3.09813e-07
3.09645e-07
3.09392e-07
3.08829e-07
3.07958e-07
3.08406e-07
3.08429e-07
3.08487e-07
3.08557e-07
3.08626e-07
3.08689e-07
3.08759e-07
3.08829e-07
3.08691e-07
3.08301e-07
3.071e-07
3.07131e-07
3.07171e-07
3.07225e-07
3.07294e-07
3.07407e-07
3.07618e-07
3.07958e-07
3.08301e-07
3.0857e-07
3.09203e-07
3.09066e-07
3.0877e-07
3.08268e-07
3.07512e-07
3.06487e-07
3.05264e-07
3.04032e-07
3.02871e-07
3.01829e-07
3.09066e-07
3.08933e-07
3.08647e-07
3.08159e-07
3.07422e-07
3.06419e-07
3.0522e-07
3.04007e-07
3.02844e-07
3.01806e-07
3.0877e-07
3.08647e-07
3.0838e-07
3.07921e-07
3.07223e-07
3.06268e-07
3.05121e-07
3.03951e-07
3.028e-07
3.01746e-07
3.08268e-07
3.08159e-07
3.07921e-07
3.07507e-07
3.06873e-07
3.05997e-07
3.04936e-07
3.03843e-07
3.02727e-07
3.01657e-07
3.07512e-07
3.07422e-07
3.07223e-07
3.06873e-07
3.06328e-07
3.05567e-07
3.04639e-07
3.0367e-07
3.02625e-07
3.01559e-07
3.06487e-07
3.06419e-07
3.06268e-07
3.05997e-07
3.05567e-07
3.0496e-07
3.04215e-07
3.03428e-07
3.02511e-07
3.01493e-07
3.05264e-07
3.05221e-07
3.05121e-07
3.04936e-07
3.04639e-07
3.04215e-07
3.03697e-07
3.03145e-07
3.0242e-07
3.01523e-07
3.04032e-07
3.04007e-07
3.03951e-07
3.03843e-07
3.0367e-07
3.03428e-07
3.03145e-07
3.02846e-07
3.02366e-07
3.01683e-07
3.02871e-07
3.02844e-07
3.028e-07
3.02727e-07
3.02625e-07
3.02511e-07
3.0242e-07
3.02366e-07
3.02199e-07
3.01871e-07
3.01829e-07
3.01806e-07
3.01746e-07
3.01657e-07
3.01559e-07
3.01493e-07
3.01523e-07
3.01683e-07
3.01871e-07
3.02013e-07
3.0375e-07
3.03581e-07
3.03227e-07
3.02657e-07
3.01852e-07
3.00832e-07
2.99695e-07
2.98621e-07
2.97668e-07
2.9684e-07
3.03581e-07
3.03416e-07
3.03071e-07
3.02515e-07
3.01728e-07
3.00729e-07
2.99617e-07
2.9856e-07
2.97605e-07
2.96779e-07
3.03227e-07
3.03071e-07
3.02745e-07
3.02217e-07
3.01468e-07
3.00514e-07
2.9945e-07
2.98434e-07
2.97493e-07
2.96651e-07
3.02657e-07
3.02515e-07
3.02217e-07
3.01733e-07
3.01043e-07
3.00164e-07
2.9918e-07
2.98236e-07
2.97326e-07
2.96473e-07
3.01852e-07
3.01728e-07
3.01468e-07
3.01043e-07
3.00438e-07
2.99664e-07
2.988e-07
2.97966e-07
2.97121e-07
2.96274e-07
3.00832e-07
3.00729e-07
3.00514e-07
3.00164e-07
2.99664e-07
2.99029e-07
2.98326e-07
2.97647e-07
2.96911e-07
2.96109e-07
2.99695e-07
2.99617e-07
2.9945e-07
2.9918e-07
2.988e-07
2.98326e-07
2.97812e-07
2.97323e-07
2.96742e-07
2.96042e-07
2.98621e-07
2.9856e-07
2.98434e-07
2.98236e-07
2.97966e-07
2.97647e-07
2.97323e-07
2.97028e-07
2.96634e-07
2.96104e-07
2.97668e-07
2.97605e-07
2.97493e-07
2.97326e-07
2.97121e-07
2.96911e-07
2.96742e-07
2.96634e-07
2.96474e-07
2.96209e-07
2.9684e-07
2.96779e-07
2.96651e-07
2.96473e-07
2.96274e-07
2.96109e-07
2.96042e-07
2.96104e-07
2.96209e-07
2.96287e-07
2.98328e-07
2.98143e-07
2.97763e-07
2.97173e-07
2.96376e-07
2.95416e-07
2.94403e-07
2.9349e-07
2.92711e-07
2.92049e-07
2.98143e-07
2.97962e-07
2.97591e-07
2.97013e-07
2.96233e-07
2.95294e-07
2.94302e-07
2.93405e-07
2.92626e-07
2.91964e-07
2.97763e-07
2.97591e-07
2.97237e-07
2.96686e-07
2.95941e-07
2.95043e-07
2.94097e-07
2.93237e-07
2.92471e-07
2.91796e-07
2.97173e-07
2.97013e-07
2.96686e-07
2.96176e-07
2.95485e-07
2.94655e-07
2.93782e-07
2.92987e-07
2.92252e-07
2.91567e-07
2.96376e-07
2.96233e-07
2.95941e-07
2.95485e-07
2.94872e-07
2.94137e-07
2.93369e-07
2.92672e-07
2.91994e-07
2.91317e-07
2.95416e-07
2.95294e-07
2.95043e-07
2.94655e-07
2.94137e-07
2.93524e-07
2.92894e-07
2.92328e-07
2.91742e-07
2.91106e-07
2.94403e-07
2.94302e-07
2.94097e-07
2.93782e-07
2.93369e-07
2.92894e-07
2.92422e-07
2.92007e-07
2.91545e-07
2.90996e-07
2.9349e-07
2.93405e-07
2.93237e-07
2.92987e-07
2.92672e-07
2.92328e-07
2.92007e-07
2.91741e-07
2.91422e-07
2.91008e-07
2.92711e-07
2.92626e-07
2.92471e-07
2.92252e-07
2.91994e-07
2.91742e-07
2.91545e-07
2.91422e-07
2.9128e-07
2.91068e-07
2.9205e-07
2.91964e-07
2.91796e-07
2.91567e-07
2.91317e-07
2.91106e-07
2.90996e-07
2.91008e-07
2.91068e-07
2.91112e-07
2.92999e-07
2.92812e-07
2.9243e-07
2.91852e-07
2.91099e-07
2.9023e-07
2.8935e-07
2.88584e-07
2.87948e-07
2.87412e-07
2.92812e-07
2.92627e-07
2.92253e-07
2.91687e-07
2.90949e-07
2.90098e-07
2.89238e-07
2.88487e-07
2.87851e-07
2.87314e-07
2.9243e-07
2.92253e-07
2.91894e-07
2.91353e-07
2.90647e-07
2.89833e-07
2.89014e-07
2.88298e-07
2.87675e-07
2.87127e-07
2.91852e-07
2.91687e-07
2.91353e-07
2.90848e-07
2.90191e-07
2.89438e-07
2.88684e-07
2.88027e-07
2.87432e-07
2.86877e-07
2.91099e-07
2.90949e-07
2.90647e-07
2.90191e-07
2.89603e-07
2.88935e-07
2.88273e-07
2.877e-07
2.87156e-07
2.86611e-07
2.9023e-07
2.90098e-07
2.89833e-07
2.89438e-07
2.88935e-07
2.88372e-07
2.87827e-07
2.87363e-07
2.86896e-07
2.86388e-07
2.8935e-07
2.89238e-07
2.89014e-07
2.88684e-07
2.88273e-07
2.87827e-07
2.87411e-07
2.87068e-07
2.867e-07
2.86264e-07
2.88584e-07
2.88487e-07
2.88298e-07
2.88027e-07
2.877e-07
2.87363e-07
2.87068e-07
2.86838e-07
2.86582e-07
2.86254e-07
2.87948e-07
2.87851e-07
2.87675e-07
2.87432e-07
2.87156e-07
2.86896e-07
2.867e-07
2.86582e-07
2.8646e-07
2.86291e-07
2.87412e-07
2.87314e-07
2.87127e-07
2.86877e-07
2.86611e-07
2.86388e-07
2.86264e-07
2.86254e-07
2.86291e-07
2.86317e-07
2.87806e-07
2.87624e-07
2.87256e-07
2.86712e-07
2.86024e-07
2.85255e-07
2.84503e-07
2.83866e-07
2.83344e-07
2.82905e-07
2.87624e-07
2.87444e-07
2.87083e-07
2.8655e-07
2.85875e-07
2.85122e-07
2.84388e-07
2.83764e-07
2.83243e-07
2.82803e-07
2.87256e-07
2.87083e-07
2.86736e-07
2.86224e-07
2.85578e-07
2.84859e-07
2.84162e-07
2.8357e-07
2.83061e-07
2.82612e-07
2.86712e-07
2.8655e-07
2.86224e-07
2.85745e-07
2.85143e-07
2.84478e-07
2.83838e-07
2.83299e-07
2.82816e-07
2.82361e-07
2.86024e-07
2.85875e-07
2.85578e-07
2.85143e-07
2.846e-07
2.84009e-07
2.8345e-07
2.82984e-07
2.82545e-07
2.821e-07
2.85255e-07
2.85122e-07
2.84859e-07
2.84478e-07
2.84009e-07
2.83509e-07
2.83048e-07
2.82672e-07
2.82298e-07
2.81886e-07
2.84503e-07
2.84388e-07
2.84162e-07
2.83838e-07
2.8345e-07
2.83048e-07
2.82693e-07
2.82412e-07
2.82118e-07
2.81767e-07
2.83866e-07
2.83764e-07
2.8357e-07
2.83299e-07
2.82984e-07
2.82672e-07
2.82412e-07
2.82219e-07
2.82012e-07
2.8175e-07
2.83344e-07
2.83243e-07
2.83061e-07
2.82816e-07
2.82545e-07
2.82298e-07
2.82118e-07
2.82012e-07
2.8191e-07
2.81774e-07
2.82905e-07
2.82803e-07
2.82612e-07
2.82361e-07
2.821e-07
2.81886e-07
2.81767e-07
2.8175e-07
2.81774e-07
2.81789e-07
2.8277e-07
2.82598e-07
2.82254e-07
2.81756e-07
2.8114e-07
2.80472e-07
2.79837e-07
2.79309e-07
2.78878e-07
2.78514e-07
2.82598e-07
2.82428e-07
2.82091e-07
2.81602e-07
2.80998e-07
2.80344e-07
2.79725e-07
2.79209e-07
2.7878e-07
2.78414e-07
2.82254e-07
2.82091e-07
2.81766e-07
2.81296e-07
2.80717e-07
2.80093e-07
2.79507e-07
2.7902e-07
2.78602e-07
2.78229e-07
2.81756e-07
2.81602e-07
2.81296e-07
2.80854e-07
2.80314e-07
2.79738e-07
2.79202e-07
2.78762e-07
2.78368e-07
2.77991e-07
2.8114e-07
2.80998e-07
2.80717e-07
2.80314e-07
2.79827e-07
2.79315e-07
2.78849e-07
2.78471e-07
2.78116e-07
2.77748e-07
2.80472e-07
2.80344e-07
2.80093e-07
2.79738e-07
2.79315e-07
2.78881e-07
2.78497e-07
2.78194e-07
2.77893e-07
2.77554e-07
2.79837e-07
2.79725e-07
2.79507e-07
2.79202e-07
2.78849e-07
2.78497e-07
2.78199e-07
2.77972e-07
2.77735e-07
2.77449e-07
2.79309e-07
2.79209e-07
2.7902e-07
2.78762e-07
2.78471e-07
2.78194e-07
2.77972e-07
2.77812e-07
2.77644e-07
2.77432e-07
2.78878e-07
2.7878e-07
2.78602e-07
2.78368e-07
2.78116e-07
2.77893e-07
2.77735e-07
2.77644e-07
2.7756e-07
2.77449e-07
2.78514e-07
2.78414e-07
2.78229e-07
2.77991e-07
2.77748e-07
2.77554e-07
2.77449e-07
2.77432e-07
2.77449e-07
2.77459e-07
2.77899e-07
2.77741e-07
2.77427e-07
2.76979e-07
2.76437e-07
2.75863e-07
2.7533e-07
2.74893e-07
2.74536e-07
2.74229e-07
2.77741e-07
2.77585e-07
2.77276e-07
2.76836e-07
2.76305e-07
2.75744e-07
2.75225e-07
2.74799e-07
2.74443e-07
2.74135e-07
2.77427e-07
2.77276e-07
2.76978e-07
2.76555e-07
2.76046e-07
2.75511e-07
2.75022e-07
2.74622e-07
2.74277e-07
2.73963e-07
2.76979e-07
2.76836e-07
2.76555e-07
2.76157e-07
2.75682e-07
2.75189e-07
2.74744e-07
2.74385e-07
2.74061e-07
2.73745e-07
2.76437e-07
2.76305e-07
2.76046e-07
2.75682e-07
2.75253e-07
2.74816e-07
2.74431e-07
2.74125e-07
2.73835e-07
2.73528e-07
2.75863e-07
2.75744e-07
2.75511e-07
2.75189e-07
2.74816e-07
2.74446e-07
2.74129e-07
2.73885e-07
2.7364e-07
2.73359e-07
2.7533e-07
2.75225e-07
2.75022e-07
2.74744e-07
2.74431e-07
2.74129e-07
2.73882e-07
2.73699e-07
2.73506e-07
2.7327e-07
2.74893e-07
2.74799e-07
2.74622e-07
2.74385e-07
2.74125e-07
2.73885e-07
2.73699e-07
2.73569e-07
2.73431e-07
2.73257e-07
2.74536e-07
2.74443e-07
2.74277e-07
2.74061e-07
2.73835e-07
2.7364e-07
2.73506e-07
2.73431e-07
2.73363e-07
2.73271e-07
2.74229e-07
2.74135e-07
2.73963e-07
2.73745e-07
2.73528e-07
2.73359e-07
2.7327e-07
2.73257e-07
2.73271e-07
2.73278e-07
2.73192e-07
2.7305e-07
2.72767e-07
2.7237e-07
2.71899e-07
2.7141e-07
2.70964e-07
2.70603e-07
2.70303e-07
2.70042e-07
2.7305e-07
2.72909e-07
2.72631e-07
2.72241e-07
2.71779e-07
2.71301e-07
2.70868e-07
2.70516e-07
2.70218e-07
2.69956e-07
2.72767e-07
2.72631e-07
2.72362e-07
2.71986e-07
2.71544e-07
2.7109e-07
2.70683e-07
2.70355e-07
2.70068e-07
2.698e-07
2.7237e-07
2.72241e-07
2.71986e-07
2.71633e-07
2.71221e-07
2.70804e-07
2.70436e-07
2.70143e-07
2.69875e-07
2.69606e-07
2.71899e-07
2.71779e-07
2.71544e-07
2.71221e-07
2.70849e-07
2.7048e-07
2.70164e-07
2.69916e-07
2.69677e-07
2.69418e-07
2.7141e-07
2.71301e-07
2.7109e-07
2.70804e-07
2.7048e-07
2.70168e-07
2.69909e-07
2.69712e-07
2.69511e-07
2.69275e-07
2.70964e-07
2.70868e-07
2.70683e-07
2.70436e-07
2.70164e-07
2.69909e-07
2.69707e-07
2.69559e-07
2.69401e-07
2.69204e-07
2.70603e-07
2.70516e-07
2.70355e-07
2.70143e-07
2.69916e-07
2.69712e-07
2.69559e-07
2.69453e-07
2.6934e-07
2.69196e-07
2.70303e-07
2.70218e-07
2.70068e-07
2.69875e-07
2.69677e-07
2.69511e-07
2.69401e-07
2.6934e-07
2.69284e-07
2.69209e-07
2.70042e-07
2.69956e-07
2.698e-07
2.69606e-07
2.69418e-07
2.69275e-07
2.69204e-07
2.69196e-07
2.69209e-07
2.69213e-07
2.68643e-07
2.68516e-07
2.68264e-07
2.67916e-07
2.67509e-07
2.67095e-07
2.66723e-07
2.66423e-07
2.66171e-07
2.65945e-07
2.68516e-07
2.6839e-07
2.68142e-07
2.678e-07
2.67402e-07
2.66997e-07
2.66637e-07
2.66345e-07
2.66094e-07
2.65868e-07
2.68264e-07
2.68142e-07
2.67903e-07
2.67574e-07
2.67193e-07
2.6681e-07
2.66472e-07
2.66202e-07
2.65961e-07
2.65731e-07
2.67916e-07
2.678e-07
2.67574e-07
2.67264e-07
2.66909e-07
2.66559e-07
2.66256e-07
2.66017e-07
2.65792e-07
2.65562e-07
2.67509e-07
2.67402e-07
2.67193e-07
2.66909e-07
2.6659e-07
2.66282e-07
2.66023e-07
2.65822e-07
2.65623e-07
2.65402e-07
2.67095e-07
2.66997e-07
2.6681e-07
2.66559e-07
2.66282e-07
2.66021e-07
2.65811e-07
2.65652e-07
2.65484e-07
2.65285e-07
2.66723e-07
2.66637e-07
2.66472e-07
2.66256e-07
2.66023e-07
2.65811e-07
2.65646e-07
2.65527e-07
2.65395e-07
2.65229e-07
2.66423e-07
2.66345e-07
2.66202e-07
2.66017e-07
2.65822e-07
2.65652e-07
2.65527e-07
2.65441e-07
2.65348e-07
2.65227e-07
2.66171e-07
2.66094e-07
2.65961e-07
2.65792e-07
2.65623e-07
2.65484e-07
2.65395e-07
2.65348e-07
2.65302e-07
2.65239e-07
2.65945e-07
2.65868e-07
2.65731e-07
2.65562e-07
2.65402e-07
2.65285e-07
2.65229e-07
2.65227e-07
2.65239e-07
2.65242e-07
2.6424e-07
2.64128e-07
2.63906e-07
2.63602e-07
2.63253e-07
2.62903e-07
2.62593e-07
2.62343e-07
2.62128e-07
2.61931e-07
2.64128e-07
2.64016e-07
2.63798e-07
2.635e-07
2.63158e-07
2.62817e-07
2.62517e-07
2.62275e-07
2.62061e-07
2.61864e-07
2.63906e-07
2.63798e-07
2.63587e-07
2.633e-07
2.62974e-07
2.62652e-07
2.62373e-07
2.62149e-07
2.61945e-07
2.61745e-07
2.63602e-07
2.635e-07
2.633e-07
2.63031e-07
2.62728e-07
2.62435e-07
2.62186e-07
2.61989e-07
2.618e-07
2.61601e-07
2.63253e-07
2.63158e-07
2.62974e-07
2.62728e-07
2.62457e-07
2.622e-07
2.61988e-07
2.61825e-07
2.61658e-07
2.61467e-07
2.62903e-07
2.62817e-07
2.62652e-07
2.62435e-07
2.622e-07
2.61984e-07
2.61813e-07
2.61684e-07
2.61544e-07
2.61373e-07
2.62593e-07
2.62517e-07
2.62373e-07
2.62186e-07
2.61988e-07
2.61813e-07
2.6168e-07
2.61583e-07
2.61473e-07
2.61332e-07
2.62343e-07
2.62275e-07
2.62149e-07
2.61989e-07
2.61825e-07
2.61684e-07
2.61583e-07
2.61515e-07
2.61437e-07
2.61334e-07
2.62128e-07
2.62061e-07
2.61945e-07
2.618e-07
2.61658e-07
2.61544e-07
2.61473e-07
2.61437e-07
2.61399e-07
2.61346e-07
2.61931e-07
2.61864e-07
2.61745e-07
2.61601e-07
2.61467e-07
2.61373e-07
2.61332e-07
2.61334e-07
2.61346e-07
2.61349e-07
2.59971e-07
2.59872e-07
2.59677e-07
2.59414e-07
2.59116e-07
2.5882e-07
2.58561e-07
2.58352e-07
2.58168e-07
2.57994e-07
2.59872e-07
2.59774e-07
2.59583e-07
2.59325e-07
2.59033e-07
2.58745e-07
2.58495e-07
2.58293e-07
2.5811e-07
2.57936e-07
2.59677e-07
2.59583e-07
2.59398e-07
2.5915e-07
2.58872e-07
2.58602e-07
2.5837e-07
2.58184e-07
2.5801e-07
2.57834e-07
2.59414e-07
2.59325e-07
2.5915e-07
2.58918e-07
2.58661e-07
2.58416e-07
2.5821e-07
2.58048e-07
2.57887e-07
2.57713e-07
2.59116e-07
2.59033e-07
2.58872e-07
2.58661e-07
2.58431e-07
2.58218e-07
2.58045e-07
2.57911e-07
2.57769e-07
2.57604e-07
2.5882e-07
2.58745e-07
2.58602e-07
2.58416e-07
2.58218e-07
2.5804e-07
2.57901e-07
2.57796e-07
2.57678e-07
2.5753e-07
2.58561e-07
2.58495e-07
2.5837e-07
2.5821e-07
2.58045e-07
2.57901e-07
2.57794e-07
2.57716e-07
2.57623e-07
2.57501e-07
2.58352e-07
2.58293e-07
2.58184e-07
2.58048e-07
2.57911e-07
2.57796e-07
2.57716e-07
2.57661e-07
2.57595e-07
2.57507e-07
2.58168e-07
2.5811e-07
2.5801e-07
2.57887e-07
2.57769e-07
2.57678e-07
2.57623e-07
2.57595e-07
2.57564e-07
2.57519e-07
2.57994e-07
2.57936e-07
2.57834e-07
2.57713e-07
2.57604e-07
2.5753e-07
2.57501e-07
2.57507e-07
2.57519e-07
2.57522e-07
2.55822e-07
2.55736e-07
2.55566e-07
2.55339e-07
2.55084e-07
2.54834e-07
2.54617e-07
2.54441e-07
2.54281e-07
2.54127e-07
2.55736e-07
2.55651e-07
2.55484e-07
2.55261e-07
2.55011e-07
2.54769e-07
2.5456e-07
2.5439e-07
2.54232e-07
2.54078e-07
2.55566e-07
2.55484e-07
2.55323e-07
2.55109e-07
2.54872e-07
2.54645e-07
2.54453e-07
2.54298e-07
2.54147e-07
2.53992e-07
2.55339e-07
2.55261e-07
2.55109e-07
2.54909e-07
2.54691e-07
2.54487e-07
2.54318e-07
2.54183e-07
2.54045e-07
2.53892e-07
2.55084e-07
2.55011e-07
2.54872e-07
2.54691e-07
2.54498e-07
2.54322e-07
2.5418e-07
2.5407e-07
2.53948e-07
2.53803e-07
2.54834e-07
2.54769e-07
2.54645e-07
2.54487e-07
2.54322e-07
2.54175e-07
2.54063e-07
2.53977e-07
2.53875e-07
2.53747e-07
2.54617e-07
2.5456e-07
2.54453e-07
2.54318e-07
2.5418e-07
2.54063e-07
2.53976e-07
2.53913e-07
2.53834e-07
2.53729e-07
2.54441e-07
2.5439e-07
2.54298e-07
2.54183e-07
2.5407e-07
2.53977e-07
2.53913e-07
2.53869e-07
2.53813e-07
2.53737e-07
2.54281e-07
2.54232e-07
2.54147e-07
2.54045e-07
2.53948e-07
2.53875e-07
2.53834e-07
2.53813e-07
2.53788e-07
2.53749e-07
2.54127e-07
2.54078e-07
2.53992e-07
2.53892e-07
2.53803e-07
2.53747e-07
2.53729e-07
2.53737e-07
2.53749e-07
2.53752e-07
2.51782e-07
2.51707e-07
2.51559e-07
2.51362e-07
2.51144e-07
2.50934e-07
2.50751e-07
2.50602e-07
2.50462e-07
2.50324e-07
2.51707e-07
2.51633e-07
2.51487e-07
2.51295e-07
2.51082e-07
2.50878e-07
2.50702e-07
2.50558e-07
2.5042e-07
2.50283e-07
2.51559e-07
2.51487e-07
2.51347e-07
2.51163e-07
2.50962e-07
2.50772e-07
2.50611e-07
2.5048e-07
2.50349e-07
2.50211e-07
2.51362e-07
2.51295e-07
2.51163e-07
2.50992e-07
2.50808e-07
2.50638e-07
2.50497e-07
2.50385e-07
2.50265e-07
2.50129e-07
2.51144e-07
2.51082e-07
2.50962e-07
2.50808e-07
2.50646e-07
2.505e-07
2.50384e-07
2.50292e-07
2.50187e-07
2.50059e-07
2.50934e-07
2.50878e-07
2.50772e-07
2.50638e-07
2.505e-07
2.5038e-07
2.50288e-07
2.50217e-07
2.5013e-07
2.50017e-07
2.50751e-07
2.50702e-07
2.50611e-07
2.50497e-07
2.50384e-07
2.50288e-07
2.50219e-07
2.50167e-07
2.50099e-07
2.50007e-07
2.50602e-07
2.50558e-07
2.5048e-07
2.50385e-07
2.50292e-07
2.50217e-07
2.50167e-07
2.50132e-07
2.50084e-07
2.50019e-07
2.50462e-07
2.5042e-07
2.50349e-07
2.50265e-07
2.50187e-07
2.5013e-07
2.50099e-07
2.50084e-07
2.50064e-07
2.5003e-07
2.50324e-07
2.50283e-07
2.50211e-07
2.50129e-07
2.50059e-07
2.50017e-07
2.50007e-07
2.50019e-07
2.5003e-07
2.50033e-07
2.47838e-07
2.47773e-07
2.47644e-07
2.47474e-07
2.47287e-07
2.47109e-07
2.46954e-07
2.46827e-07
2.46704e-07
2.46579e-07
2.47773e-07
2.47708e-07
2.47582e-07
2.47416e-07
2.47234e-07
2.47061e-07
2.46913e-07
2.4679e-07
2.46669e-07
2.46545e-07
2.47644e-07
2.47582e-07
2.4746e-07
2.47302e-07
2.47131e-07
2.46971e-07
2.46836e-07
2.46725e-07
2.4661e-07
2.46487e-07
2.47474e-07
2.47416e-07
2.47302e-07
2.47156e-07
2.47e-07
2.46858e-07
2.46741e-07
2.46646e-07
2.46541e-07
2.4642e-07
2.47287e-07
2.47234e-07
2.47131e-07
2.47e-07
2.46864e-07
2.46743e-07
2.46647e-07
2.46571e-07
2.46479e-07
2.46366e-07
2.47109e-07
2.47061e-07
2.46971e-07
2.46858e-07
2.46743e-07
2.46645e-07
2.4657e-07
2.46511e-07
2.46435e-07
2.46336e-07
2.46954e-07
2.46913e-07
2.46836e-07
2.46741e-07
2.46647e-07
2.4657e-07
2.46515e-07
2.46472e-07
2.46413e-07
2.46332e-07
2.46827e-07
2.4679e-07
2.46725e-07
2.46646e-07
2.46571e-07
2.46511e-07
2.46472e-07
2.46444e-07
2.46403e-07
2.46345e-07
2.46704e-07
2.46669e-07
2.4661e-07
2.46541e-07
2.46479e-07
2.46435e-07
2.46413e-07
2.46403e-07
2.46386e-07
2.46357e-07
2.46579e-07
2.46545e-07
2.46487e-07
2.4642e-07
2.46366e-07
2.46336e-07
2.46332e-07
2.46345e-07
2.46357e-07
2.46359e-07
2.4398e-07
2.43923e-07
2.4381e-07
2.43663e-07
2.43503e-07
2.43351e-07
2.4322e-07
2.43111e-07
2.43002e-07
2.42888e-07
2.43923e-07
2.43867e-07
2.43756e-07
2.43613e-07
2.43458e-07
2.43311e-07
2.43185e-07
2.4308e-07
2.42973e-07
2.42861e-07
2.4381e-07
2.43756e-07
2.43651e-07
2.43515e-07
2.43369e-07
2.43234e-07
2.4312e-07
2.43026e-07
2.42924e-07
2.42813e-07
2.43663e-07
2.43613e-07
2.43515e-07
2.4339e-07
2.43258e-07
2.43139e-07
2.43041e-07
2.42961e-07
2.42869e-07
2.4276e-07
2.43503e-07
2.43458e-07
2.43369e-07
2.43258e-07
2.43144e-07
2.43044e-07
2.42965e-07
2.429e-07
2.42819e-07
2.42718e-07
2.43351e-07
2.43311e-07
2.43234e-07
2.43139e-07
2.43044e-07
2.42963e-07
2.42903e-07
2.42853e-07
2.42787e-07
2.42698e-07
2.4322e-07
2.43185e-07
2.4312e-07
2.43041e-07
2.42965e-07
2.42903e-07
2.42858e-07
2.42823e-07
2.42771e-07
2.427e-07
2.43111e-07
2.4308e-07
2.43026e-07
2.42961e-07
2.429e-07
2.42853e-07
2.42823e-07
2.428e-07
2.42765e-07
2.42714e-07
2.43002e-07
2.42973e-07
2.42924e-07
2.42869e-07
2.42819e-07
2.42787e-07
2.42771e-07
2.42765e-07
2.42751e-07
2.42725e-07
2.42888e-07
2.42861e-07
2.42813e-07
2.4276e-07
2.42718e-07
2.42698e-07
2.427e-07
2.42714e-07
2.42725e-07
2.42728e-07
2.40197e-07
2.40147e-07
2.40049e-07
2.39922e-07
2.39784e-07
2.39654e-07
2.39542e-07
2.39447e-07
2.3935e-07
2.39246e-07
2.40147e-07
2.40098e-07
2.40002e-07
2.39878e-07
2.39745e-07
2.39619e-07
2.39512e-07
2.39422e-07
2.39326e-07
2.39224e-07
2.40049e-07
2.40002e-07
2.39911e-07
2.39794e-07
2.39669e-07
2.39554e-07
2.39458e-07
2.39377e-07
2.39287e-07
2.39185e-07
2.39922e-07
2.39878e-07
2.39794e-07
2.39687e-07
2.39575e-07
2.39475e-07
2.39393e-07
2.39324e-07
2.39242e-07
2.39144e-07
2.39784e-07
2.39745e-07
2.39669e-07
2.39575e-07
2.39479e-07
2.39396e-07
2.3933e-07
2.39275e-07
2.39204e-07
2.39113e-07
2.39654e-07
2.39619e-07
2.39554e-07
2.39475e-07
2.39396e-07
2.3933e-07
2.3928e-07
2.39238e-07
2.3918e-07
2.39101e-07
2.39542e-07
2.39512e-07
2.39458e-07
2.39393e-07
2.3933e-07
2.3928e-07
2.39244e-07
2.39215e-07
2.3917e-07
2.39106e-07
2.39447e-07
2.39422e-07
2.39377e-07
2.39324e-07
2.39275e-07
2.39238e-07
2.39215e-07
2.39197e-07
2.39166e-07
2.39121e-07
2.3935e-07
2.39326e-07
2.39287e-07
2.39242e-07
2.39204e-07
2.3918e-07
2.3917e-07
2.39166e-07
2.39155e-07
2.39132e-07
2.39246e-07
2.39224e-07
2.39185e-07
2.39144e-07
2.39113e-07
2.39101e-07
2.39106e-07
2.39121e-07
2.39132e-07
2.39135e-07
2.36481e-07
2.36438e-07
2.36351e-07
2.36241e-07
2.36122e-07
2.3601e-07
2.35914e-07
2.35831e-07
2.35744e-07
2.35649e-07
2.36438e-07
2.36395e-07
2.36311e-07
2.36204e-07
2.36089e-07
2.35981e-07
2.35889e-07
2.3581e-07
2.35725e-07
2.35631e-07
2.36351e-07
2.36311e-07
2.36232e-07
2.36131e-07
2.36024e-07
2.35926e-07
2.35844e-07
2.35774e-07
2.35693e-07
2.35601e-07
2.36241e-07
2.36204e-07
2.36131e-07
2.36039e-07
2.35944e-07
2.35859e-07
2.3579e-07
2.35731e-07
2.35657e-07
2.35569e-07
2.36122e-07
2.36089e-07
2.36024e-07
2.35944e-07
2.35864e-07
2.35794e-07
2.35739e-07
2.35692e-07