/*--------------------------------*- C++ -*----------------------------------*\
| =========                 |                                                 |
| \\      /  F ield         | OpenFOAM: The Open Source CFD Toolbox           |
|  \\    /   O peration     | Version:  2212                                  |
|   \\  /    A nd           | Website:  www.openfoam.com                      |
|    \\/     M anipulation  |                                                 |
\*---------------------------------------------------------------------------*/
FoamFile
{
    version     2.0;
    format      ascii;
    arch        "LSB;label=32;scalar=64";
    class       surfaceScalarField;
    location    "100";
    object      phi;
}
// * * * * * * * * * * * * * * * * * * * * * * * * * * * * * * * * * * * * * //

dimensions      [0 3 -1 0 0 0 0];

oriented        oriented;

internalField   nonuniform List<scalar> 
27900
(
-9.85777e-09
-9.85778e-09
2.94052e-06
-2.06855e-08
-9.93371e-09
2.94156e-06
-3.39643e-08
-1.00878e-08
2.94417e-06
-5.21016e-08
-1.03014e-08
2.94924e-06
-7.98935e-08
-1.0563e-08
2.95916e-06
-1.26647e-07
-1.07406e-08
2.97829e-06
-2.08526e-07
-1.03486e-08
3.01303e-06
-3.50685e-07
-1.05528e-08
3.07351e-06
-5.23439e-07
-1.33582e-08
3.10691e-06
1.77832e-09
2.39558e-06
-9.9337e-09
-2.06854e-08
2.94156e-06
-2.0804e-08
-2.0804e-08
2.94254e-06
-3.41169e-08
-2.11064e-08
2.94513e-06
-5.22242e-08
-2.1547e-08
2.95015e-06
-7.98753e-08
-2.20875e-08
2.95998e-06
-1.25998e-07
-2.26144e-08
2.9788e-06
-2.05715e-07
-2.28929e-08
3.01306e-06
-3.47834e-07
-2.29807e-08
3.07535e-06
-5.32851e-07
-2.22096e-08
3.11467e-06
-1.44276e-08
2.40415e-06
-1.00878e-08
-3.39643e-08
2.94417e-06
-2.11065e-08
-3.41169e-08
2.94513e-06
-3.45608e-08
-3.45608e-08
2.94771e-06
-5.27797e-08
-3.52266e-08
2.9527e-06
-8.04617e-08
-3.60707e-08
2.96247e-06
-1.26443e-07
-3.69716e-08
2.98114e-06
-2.06072e-07
-3.76677e-08
3.0152e-06
-3.48222e-07
-3.77747e-08
3.07774e-06
-5.30134e-07
-3.62432e-08
3.11675e-06
-2.63918e-08
2.40263e-06
-1.03013e-08
-5.21017e-08
2.94924e-06
-2.1547e-08
-5.22244e-08
2.95015e-06
-3.52266e-08
-5.27799e-08
2.9527e-06
-5.36429e-08
-5.36432e-08
2.95763e-06
-8.14405e-08
-5.47864e-08
2.96731e-06
-1.27378e-07
-5.60905e-08
2.98586e-06
-2.06779e-07
-5.72418e-08
3.01978e-06
-3.48489e-07
-5.75378e-08
3.08227e-06
-5.29763e-07
-5.53201e-08
3.12115e-06
-4.11224e-08
2.40577e-06
-1.0563e-08
-7.98938e-08
2.95916e-06
-2.20876e-08
-7.98758e-08
2.95998e-06
-3.60708e-08
-8.04623e-08
2.96247e-06
-5.47861e-08
-8.14413e-08
2.96731e-06
-8.2814e-08
-8.28148e-08
2.97686e-06
-1.28802e-07
-8.44983e-08
2.9952e-06
-2.07947e-07
-8.61497e-08
3.02885e-06
-3.49041e-07
-8.67483e-08
3.0911e-06
-5.29723e-07
-8.362e-08
3.12978e-06
-6.23632e-08
2.41232e-06
-1.07408e-08
-1.26647e-07
2.97829e-06
-2.26147e-08
-1.25998e-07
2.9788e-06
-3.69718e-08
-1.26443e-07
2.98114e-06
-5.60902e-08
-1.27378e-07
2.98586e-06
-8.44976e-08
-1.28802e-07
2.9952e-06
-1.30701e-07
-1.30702e-07
3.01321e-06
-2.09659e-07
-1.32773e-07
3.04638e-06
-3.4993e-07
-1.33695e-07
3.10802e-06
-5.2969e-07
-1.29065e-07
3.146e-06
-9.58242e-08
2.42457e-06
-1.03489e-08
-2.08525e-07
3.01303e-06
-2.28932e-08
-2.05714e-07
3.01306e-06
-3.76679e-08
-2.06071e-07
3.0152e-06
-5.72416e-08
-2.06778e-07
3.01978e-06
-8.6149e-08
-2.07947e-07
3.02885e-06
-1.32772e-07
-2.09658e-07
3.04638e-06
-2.11751e-07
-2.11751e-07
3.07876e-06
-3.51042e-07
-2.12837e-07
3.13923e-06
-5.29102e-07
-2.05818e-07
3.17561e-06
-1.51264e-07
2.44714e-06
-1.05528e-08
-3.50685e-07
3.07351e-06
-2.29808e-08
-3.47834e-07
3.07535e-06
-3.77748e-08
-3.48222e-07
3.07774e-06
-5.75375e-08
-3.48488e-07
3.08227e-06
-8.67478e-08
-3.49041e-07
3.0911e-06
-1.33695e-07
-3.4993e-07
3.10802e-06
-2.12838e-07
-3.51041e-07
3.13923e-06
-3.51373e-07
-3.51372e-07
3.19787e-06
-5.2768e-07
-3.40279e-07
3.23157e-06
-2.49921e-07
2.49178e-06
-1.33582e-08
-5.23439e-07
3.10691e-06
-2.22095e-08
-5.32851e-07
3.11467e-06
-3.62432e-08
-5.30134e-07
3.11675e-06
-5.532e-08
-5.29762e-07
3.12115e-06
-8.36197e-08
-5.29723e-07
3.12978e-06
-1.29065e-07
-5.2969e-07
3.14601e-06
-2.05818e-07
-5.29103e-07
3.17562e-06
-3.4028e-07
-5.2768e-07
3.23157e-06
-5.13748e-07
-5.13748e-07
3.26774e-06
-3.92947e-07
2.55008e-06
1.77838e-09
2.39558e-06
-1.44276e-08
2.40415e-06
-2.63918e-08
2.40263e-06
-4.11223e-08
2.40577e-06
-6.23631e-08
2.41232e-06
-9.58242e-08
2.42457e-06
-1.51264e-07
2.44714e-06
-2.49922e-07
2.49178e-06
-3.92947e-07
2.55008e-06
2.13491e-06
-2.94504e-08
-2.94504e-08
2.99942e-06
-6.19734e-08
-2.96247e-08
3.00371e-06
-1.01149e-07
-3.00271e-08
3.01337e-06
-1.52797e-07
-3.05862e-08
3.03147e-06
-2.25997e-07
-3.12333e-08
3.06359e-06
-3.33515e-07
-3.18073e-08
3.11762e-06
-4.84338e-07
-3.16585e-08
3.19551e-06
-6.3419e-07
-3.14895e-08
3.25485e-06
-5.62719e-07
-3.3677e-08
3.06912e-06
-1.98594e-08
1.85272e-06
-2.96247e-08
-6.19734e-08
3.00371e-06
-6.2354e-08
-6.23539e-08
3.008e-06
-1.01681e-07
-6.31905e-08
3.01762e-06
-1.53398e-07
-6.43848e-08
3.03567e-06
-2.26602e-07
-6.57781e-08
3.06773e-06
-3.34264e-07
-6.70199e-08
3.12167e-06
-4.85017e-07
-6.73895e-08
3.19955e-06
-6.3496e-07
-6.63385e-08
3.26014e-06
-5.68921e-07
-6.14454e-08
3.0764e-06
-3.70243e-08
1.8524e-06
-3.0027e-08
-1.01149e-07
3.01337e-06
-6.31906e-08
-1.01681e-07
3.01762e-06
-1.02909e-07
-1.0291e-07
3.02715e-06
-1.54924e-07
-1.04707e-07
3.04504e-06
-2.28232e-07
-1.06869e-07
3.07687e-06
-3.35698e-07
-1.08918e-07
3.1305e-06
-4.86113e-07
-1.09871e-07
3.2081e-06
-6.35786e-07
-1.0794e-07
3.26902e-06
-5.6817e-07
-9.80726e-08
3.08576e-06
-6.08015e-08
1.85824e-06
-3.0586e-08
-1.52797e-07
3.03147e-06
-6.43849e-08
-1.53399e-07
3.03567e-06
-1.04706e-07
-1.54925e-07
3.04504e-06
-1.57229e-07
-1.5723e-07
3.06268e-06
-2.30799e-07
-1.60133e-07
3.09415e-06
-3.38089e-07
-1.63096e-07
3.14733e-06
-4.87842e-07
-1.64831e-07
3.22449e-06
-6.36494e-07
-1.62298e-07
3.28528e-06
-5.67795e-07
-1.47222e-07
3.1016e-06
-9.17703e-08
1.86894e-06
-3.12333e-08
-2.25998e-07
3.06359e-06
-6.57785e-08
-2.26602e-07
3.06773e-06
-1.06869e-07
-2.28233e-07
3.07687e-06
-1.60132e-07
-2.308e-07
3.09415e-06
-2.34234e-07
-2.34235e-07
3.12506e-06
-3.41555e-07
-2.38062e-07
3.17749e-06
-4.906e-07
-2.4077e-07
3.25384e-06
-6.37869e-07
-2.3791e-07
3.31399e-06
-5.67827e-07
-2.16408e-07
3.12893e-06
-1.3465e-07
1.88737e-06
-3.18081e-08
-3.33514e-07
3.11762e-06
-6.70206e-08
-3.34263e-07
3.12167e-06
-1.08918e-07
-3.35698e-07
3.13051e-06
-1.63095e-07
-3.38088e-07
3.14733e-06
-2.38061e-07
-3.41555e-07
3.17749e-06
-3.45862e-07
-3.45862e-07
3.22881e-06
-4.94556e-07
-3.49549e-07
3.30386e-06
-6.40303e-07
-3.46773e-07
3.36263e-06
-5.68228e-07
-3.17026e-07
3.17455e-06
-1.96156e-07
1.91785e-06
-3.16593e-08
-4.84337e-07
3.19551e-06
-6.739e-08
-4.85016e-07
3.19955e-06
-1.09871e-07
-4.86111e-07
3.2081e-06
-1.6483e-07
-4.8784e-07
3.22449e-06
-2.40769e-07
-4.90599e-07
3.25384e-06
-3.49549e-07
-4.94555e-07
3.30386e-06
-4.98821e-07
-4.9882e-07
3.37731e-06
-6.43708e-07
-4.97167e-07
3.43452e-06
-5.68652e-07
-4.59032e-07
3.24257e-06
-2.81902e-07
1.96423e-06
-3.14895e-08
-6.34189e-07
3.25485e-06
-6.63384e-08
-6.34959e-07
3.26014e-06
-1.0794e-07
-6.35785e-07
3.26902e-06
-1.62298e-07
-6.36493e-07
3.28528e-06
-2.37909e-07
-6.37868e-07
3.31399e-06
-3.46773e-07
-6.40302e-07
3.36263e-06
-4.97169e-07
-6.43707e-07
3.43452e-06
-6.44421e-07
-6.44419e-07
3.49238e-06
-5.70218e-07
-6.06591e-07
3.30492e-06
-3.77754e-07
2.01741e-06
-3.36765e-08
-5.62719e-07
3.06912e-06
-6.14452e-08
-5.68921e-07
3.0764e-06
-9.80723e-08
-5.68169e-07
3.08576e-06
-1.47221e-07
-5.67795e-07
3.1016e-06
-2.16408e-07
-5.67827e-07
3.12893e-06
-3.17026e-07
-5.68228e-07
3.17455e-06
-4.59033e-07
-5.68653e-07
3.24257e-06
-6.06592e-07
-5.70217e-07
3.30492e-06
-5.53519e-07
-5.53518e-07
3.16159e-06
-3.71173e-07
1.98998e-06
-1.98591e-08
1.85272e-06
-3.70241e-08
1.8524e-06
-6.08014e-08
1.85824e-06
-9.177e-08
1.86894e-06
-1.34649e-07
1.88737e-06
-1.96156e-07
1.91785e-06
-2.81902e-07
1.96423e-06
-3.77754e-07
2.01741e-06
-3.71174e-07
1.98998e-06
1.39256e-06
-4.70343e-08
-4.70343e-08
3.09348e-06
-9.81134e-08
-4.73674e-08
3.10216e-06
-1.58002e-07
-4.80323e-08
3.12129e-06
-2.32966e-07
-4.89388e-08
3.15538e-06
-3.3008e-07
-4.99259e-08
3.21063e-06
-4.51874e-07
-5.07286e-08
3.29014e-06
-5.77592e-07
-5.05646e-08
3.37179e-06
-6.18643e-07
-4.85484e-08
3.34445e-06
-4.05194e-07
-4.38425e-08
2.89951e-06
-2.31565e-08
1.47069e-06
-4.73674e-08
-9.81134e-08
3.10216e-06
-9.87875e-08
-9.87875e-08
3.11084e-06
-1.58982e-07
-1.00111e-07
3.1299e-06
-2.34176e-07
-1.01936e-07
3.16386e-06
-3.31413e-07
-1.03932e-07
3.21897e-06
-4.53376e-07
-1.0545e-07
3.29836e-06
-5.79113e-07
-1.05211e-07
3.37993e-06
-6.19279e-07
-1.0117e-07
3.35293e-06
-4.06421e-07
-8.8119e-08
2.90782e-06
-4.79848e-08
1.47081e-06
-4.80323e-08
-1.58002e-07
3.12129e-06
-1.00111e-07
-1.58982e-07
3.1299e-06
-1.60914e-07
-1.60915e-07
3.14875e-06
-2.3657e-07
-1.63646e-07
3.1824e-06
-3.33973e-07
-1.66751e-07
3.23709e-06
-4.55662e-07
-1.69283e-07
3.31603e-06
-5.80745e-07
-1.69334e-07
3.39731e-06
-6.20263e-07
-1.63046e-07
3.37041e-06
-4.06572e-07
-1.40819e-07
2.92476e-06
-7.70826e-08
1.48076e-06
-4.89388e-08
-2.32967e-07
3.15538e-06
-1.01936e-07
-2.34177e-07
3.16386e-06
-1.63645e-07
-2.36571e-07
3.1824e-06
-2.40076e-07
-2.40077e-07
3.21554e-06
-3.37904e-07
-2.44301e-07
3.26953e-06
-4.59416e-07
-2.48122e-07
3.34768e-06
-5.83673e-07
-2.48914e-07
3.42833e-06
-6.22001e-07
-2.40508e-07
3.40107e-06
-4.071e-07
-2.07554e-07
2.95343e-06
-1.13188e-07
1.49795e-06
-4.99263e-08
-3.30081e-07
3.21063e-06
-1.03933e-07
-3.31414e-07
3.21897e-06
-1.6675e-07
-3.33974e-07
3.23709e-06
-2.443e-07
-3.37905e-07
3.26953e-06
-3.43023e-07
-3.43024e-07
3.32251e-06
-4.64844e-07
-3.48272e-07
3.39946e-06
-5.88542e-07
-3.50386e-07
3.47901e-06
-6.25455e-07
-3.40287e-07
3.45068e-06
-4.0863e-07
-2.9438e-07
2.99893e-06
-1.59332e-07
1.52488e-06
-5.073e-08
-4.51874e-07
3.29014e-06
-1.05451e-07
-4.53375e-07
3.29836e-06
-1.69283e-07
-4.55661e-07
3.31603e-06
-2.48121e-07
-4.59414e-07
3.34768e-06
-3.48271e-07
-4.64842e-07
3.39946e-06
-4.7132e-07
-4.71319e-07
3.47492e-06
-5.95512e-07
-4.7538e-07
3.55305e-06
-6.31432e-07
-4.6481e-07
3.52308e-06
-4.11716e-07
-4.0444e-07
3.06489e-06
-2.16962e-07
1.56376e-06
-5.05655e-08
-5.7759e-07
3.37179e-06
-1.05211e-07
-5.7911e-07
3.37993e-06
-1.69333e-07
-5.80742e-07
3.39731e-06
-2.48912e-07
-5.8367e-07
3.42833e-06
-3.50386e-07
-5.88539e-07
3.47902e-06
-4.75382e-07
-5.9551e-07
3.55305e-06
-6.01846e-07
-6.01843e-07
3.63023e-06
-6.38754e-07
-5.9371e-07
3.60032e-06
-4.16044e-07
-5.23047e-07
3.13846e-06
-2.78883e-07
1.61011e-06
-4.85477e-08
-6.18642e-07
3.34445e-06
-1.0117e-07
-6.19277e-07
3.35293e-06
-1.63045e-07
-6.20261e-07
3.37041e-06
-2.40507e-07
-6.21999e-07
3.40107e-06
-3.40287e-07
-6.25454e-07
3.45068e-06
-4.64811e-07
-6.31431e-07
3.52307e-06
-5.93713e-07
-6.38753e-07
3.60032e-06
-6.36785e-07
-6.36783e-07
3.57852e-06
-4.18628e-07
-5.75033e-07
3.13875e-06
-3.11882e-07
1.63178e-06
-4.38416e-08
-4.05194e-07
2.89951e-06
-8.81183e-08
-4.06421e-07
2.90781e-06
-1.40818e-07
-4.06572e-07
2.92476e-06
-2.07553e-07
-4.071e-07
2.95343e-06
-2.94379e-07
-4.08631e-07
2.99893e-06
-4.04441e-07
-4.11717e-07
3.06489e-06
-5.23049e-07
-4.16045e-07
3.13846e-06
-5.75034e-07
-4.18628e-07
3.13875e-06
-3.94191e-07
-3.9419e-07
2.7999e-06
-2.32005e-07
1.51591e-06
-2.31562e-08
1.47068e-06
-4.79845e-08
1.47081e-06
-7.70822e-08
1.48076e-06
-1.13188e-07
1.49795e-06
-1.59332e-07
1.52488e-06
-2.16963e-07
1.56376e-06
-2.78884e-07
1.61011e-06
-3.11882e-07
1.63178e-06
-2.32005e-07
1.51591e-06
9.28549e-07
-6.08876e-08
-6.08876e-08
3.21526e-06
-1.25892e-07
-6.1372e-08
3.22853e-06
-1.99593e-07
-6.22689e-08
3.25726e-06
-2.86577e-07
-6.345e-08
3.30581e-06
-3.88624e-07
-6.46235e-08
3.3773e-06
-4.95529e-07
-6.53088e-08
3.46236e-06
-5.66589e-07
-6.45198e-08
3.50737e-06
-5.16573e-07
-6.0361e-08
3.3548e-06
-2.72055e-07
-4.97597e-08
2.70475e-06
-2.34268e-08
1.22206e-06
-6.1372e-08
-1.25892e-07
3.22853e-06
-1.2684e-07
-1.2684e-07
3.24177e-06
-2.00967e-07
-1.2861e-07
3.27036e-06
-2.8827e-07
-1.30982e-07
3.3187e-06
-3.90428e-07
-1.33417e-07
3.38992e-06
-4.97227e-07
-1.34891e-07
3.47474e-06
-5.67935e-07
-1.33481e-07
3.5196e-06
-5.16823e-07
-1.25523e-07
3.36698e-06
-2.7153e-07
-1.03359e-07
2.71612e-06
-5.06111e-08
1.22646e-06
-6.22689e-08
-1.99593e-07
3.25726e-06
-1.2861e-07
-2.00967e-07
3.27036e-06
-2.03554e-07
-2.03555e-07
3.29864e-06
-2.91501e-07
-2.07138e-07
3.34651e-06
-3.93947e-07
-2.11023e-07
3.41714e-06
-5.00524e-07
-2.13694e-07
3.50141e-06
-5.70514e-07
-2.12109e-07
3.54592e-06
-5.18469e-07
-2.00065e-07
3.39291e-06
-2.72069e-07
-1.64485e-07
2.73949e-06
-8.06799e-08
1.23876e-06
-6.34501e-08
-2.86577e-07
3.30581e-06
-1.30982e-07
-2.88271e-07
3.3187e-06
-2.07138e-07
-2.91502e-07
3.34651e-06
-2.96186e-07
-2.96187e-07
3.39364e-06
-3.99383e-07
-3.01657e-07
3.46336e-06
-5.0607e-07
-3.06046e-07
3.54672e-06
-5.75385e-07
-3.04994e-07
3.59053e-06
-5.21959e-07
-2.88846e-07
3.43643e-06
-2.73606e-07
-2.37391e-07
2.77798e-06
-1.156e-07
1.25926e-06
-6.4624e-08
-3.88625e-07
3.3773e-06
-1.33417e-07
-3.90428e-07
3.38992e-06
-2.11022e-07
-3.93947e-07
3.41714e-06
-3.01657e-07
-3.99383e-07
3.46336e-06
-4.06353e-07
-4.06352e-07
3.53191e-06
-5.14036e-07
-4.12948e-07
3.61405e-06
-5.83327e-07
-4.13477e-07
3.65679e-06
-5.28343e-07
-3.93808e-07
3.50066e-06
-2.76715e-07
-3.24088e-07
2.83399e-06
-1.56213e-07
1.28878e-06
-6.53096e-08
-4.95528e-07
3.46236e-06
-1.34892e-07
-4.97225e-07
3.47474e-06
-2.13694e-07
-5.00522e-07
3.50141e-06
-3.06045e-07
-5.06068e-07
3.54672e-06
-4.12948e-07
-5.14034e-07
3.61405e-06
-5.22986e-07
-5.22984e-07
3.69499e-06
-5.93874e-07
-5.26378e-07
3.73684e-06
-5.38084e-07
-5.05268e-07
3.57875e-06
-2.81899e-07
-4.17815e-07
2.90244e-06
-1.9964e-07
1.32529e-06
-6.452e-08
-5.66588e-07
3.50737e-06
-1.33481e-07
-5.67932e-07
3.5196e-06
-2.12108e-07
-5.70511e-07
3.54592e-06
-3.04993e-07
-5.75382e-07
3.59053e-06
-4.13477e-07
-5.83324e-07
3.65679e-06
-5.2638e-07
-5.93871e-07
3.73684e-06
-6.00937e-07
-6.00935e-07
3.77935e-06
-5.47201e-07
-5.8296e-07
3.62428e-06
-2.87728e-07
-4.8776e-07
2.94893e-06
-2.32952e-07
1.35569e-06
-6.03602e-08
-5.16572e-07
3.3548e-06
-1.25522e-07
-5.16822e-07
3.36698e-06
-2.00063e-07
-5.18468e-07
3.39291e-06
-2.88845e-07
-5.21957e-07
3.43643e-06
-3.93808e-07
-5.28342e-07
3.50066e-06
-5.0527e-07
-5.38083e-07
3.57875e-06
-5.82963e-07
-5.472e-07
3.62428e-06
-5.37975e-07
-5.37973e-07
3.48854e-06
-2.8698e-07
-4.61144e-07
2.86114e-06
-2.25609e-07
1.33746e-06
-4.9759e-08
-2.72055e-07
2.70475e-06
-1.03358e-07
-2.71529e-07
2.71612e-06
-1.64485e-07
-2.72069e-07
2.73949e-06
-2.37391e-07
-2.73606e-07
2.77798e-06
-3.24088e-07
-2.76715e-07
2.83399e-06
-4.17816e-07
-2.81899e-07
2.90244e-06
-4.87762e-07
-2.87728e-07
2.94893e-06
-4.61146e-07
-2.8698e-07
2.86114e-06
-2.56998e-07
-2.56997e-07
2.3916e-06
-1.37328e-07
1.17063e-06
-2.34265e-08
1.22206e-06
-5.06107e-08
1.22646e-06
-8.06795e-08
1.23876e-06
-1.15599e-07
1.25926e-06
-1.56213e-07
1.28878e-06
-1.9964e-07
1.32529e-06
-2.32953e-07
1.35569e-06
-2.25609e-07
1.33746e-06
-1.37329e-07
1.17063e-06
6.53892e-07
-7.05917e-08
-7.05918e-08
3.35644e-06
-1.44723e-07
-7.11999e-08
3.37386e-06
-2.25758e-07
-7.23087e-08
3.4106e-06
-3.15393e-07
-7.37348e-08
3.46918e-06
-4.09284e-07
-7.50591e-08
3.54625e-06
-4.8763e-07
-7.55677e-08
3.61627e-06
-5.04992e-07
-7.39917e-08
3.59873e-06
-4.02823e-07
-6.78793e-08
3.32051e-06
-1.79602e-07
-5.33156e-08
2.53485e-06
-2.39267e-08
1.06638e-06
-7.11999e-08
-1.44723e-07
3.37386e-06
-1.45921e-07
-1.45922e-07
3.39122e-06
-2.27499e-07
-1.48138e-07
3.42777e-06
-3.17556e-07
-1.51055e-07
3.48608e-06
-4.11634e-07
-1.539e-07
3.56284e-06
-4.89867e-07
-1.55206e-07
3.63261e-06
-5.06847e-07
-1.52284e-07
3.61487e-06
-4.03763e-07
-1.40135e-07
3.33615e-06
-1.79353e-07
-1.1001e-07
2.5484e-06
-4.93643e-08
1.07254e-06
-7.23087e-08
-2.25759e-07
3.4106e-06
-1.48137e-07
-2.275e-07
3.42777e-06
-2.30784e-07
-2.30785e-07
3.46394e-06
-3.21751e-07
-2.35279e-07
3.5217e-06
-4.16384e-07
-2.39963e-07
3.59784e-06
-4.94623e-07
-2.42625e-07
3.66707e-06
-5.10956e-07
-2.38886e-07
3.64886e-06
-4.06621e-07
-2.20421e-07
3.36886e-06
-1.80474e-07
-1.72798e-07
2.57613e-06
-7.71248e-08
1.08605e-06
-7.3735e-08
-3.15393e-07
3.46918e-06
-1.51055e-07
-3.17557e-07
3.48608e-06
-2.35278e-07
-3.21751e-07
3.5217e-06
-3.27793e-07
-3.27793e-07
3.57867e-06
-4.23683e-07
-3.34639e-07
3.65393e-06
-5.02494e-07
-3.39444e-07
3.72235e-06
-5.18302e-07
-3.35803e-07
3.70325e-06
-4.12062e-07
-3.10995e-07
3.42076e-06
-1.82803e-07
-2.43488e-07
2.61942e-06
-1.07665e-07
1.107e-06
-7.50592e-08
-4.09284e-07
3.54625e-06
-1.539e-07
-4.11634e-07
3.56284e-06
-2.39962e-07
-4.16383e-07
3.59784e-06
-3.34639e-07
-4.23682e-07
3.65393e-06
-4.32785e-07
-4.32784e-07
3.7282e-06
-5.1336e-07
-4.4054e-07
3.79572e-06
-5.29467e-07
-4.38403e-07
3.7755e-06
-4.2099e-07
-4.08189e-07
3.48937e-06
-1.8687e-07
-3.19611e-07
2.676e-06
-1.39962e-07
1.13421e-06
-7.55678e-08
-4.87629e-07
3.61627e-06
-1.55206e-07
-4.89866e-07
3.63261e-06
-2.42624e-07
-4.94622e-07
3.66707e-06
-3.39444e-07
-5.02493e-07
3.72235e-06
-4.4054e-07
-5.13359e-07
3.79572e-06
-5.24363e-07
-5.24362e-07
3.86264e-06
-5.42558e-07
-5.25429e-07
3.84206e-06
-4.32734e-07
-4.92997e-07
3.55373e-06
-1.92704e-07
-3.87484e-07
2.73028e-06
-1.68907e-07
1.16153e-06
-7.39916e-08
-5.0499e-07
3.59873e-06
-1.52284e-07
-5.06846e-07
3.61487e-06
-2.38885e-07
-5.10954e-07
3.64886e-06
-3.35803e-07
-5.183e-07
3.70325e-06
-4.38403e-07
-5.29465e-07
3.7755e-06
-5.25431e-07
-5.42556e-07
3.84206e-06
-5.47807e-07
-5.47805e-07
3.8241e-06
-4.40457e-07
-5.19573e-07
3.5435e-06
-1.97814e-07
-4.12933e-07
2.73174e-06
-1.81566e-07
1.17054e-06
-6.78789e-08
-4.02823e-07
3.32051e-06
-1.40134e-07
-4.03762e-07
3.33615e-06
-2.2042e-07
-4.06619e-07
3.36886e-06
-3.10995e-07
-4.12061e-07
3.42076e-06
-4.08189e-07
-4.20989e-07
3.48937e-06
-4.92998e-07
-4.32733e-07
3.55373e-06
-5.19575e-07
-4.40455e-07
3.5435e-06
-4.2391e-07
-4.23909e-07
3.29721e-06
-1.94056e-07
-3.45077e-07
2.56343e-06
-1.57253e-07
1.11909e-06
-5.33154e-08
-1.79601e-07
2.53485e-06
-1.10009e-07
-1.79352e-07
2.5484e-06
-1.72797e-07
-1.80474e-07
2.57613e-06
-2.43487e-07
-1.82803e-07
2.61942e-06
-3.19612e-07
-1.8687e-07
2.676e-06
-3.87485e-07
-1.92704e-07
2.73028e-06
-4.12935e-07
-1.97813e-07
2.73174e-06
-3.45077e-07
-1.94056e-07
2.56343e-06
-1.65704e-07
-1.65704e-07
2.03286e-06
-8.37061e-08
9.31382e-07
-2.39266e-08
1.06638e-06
-4.9364e-08
1.07254e-06
-7.71245e-08
1.08605e-06
-1.07665e-07
1.107e-06
-1.39962e-07
1.13421e-06
-1.68907e-07
1.16153e-06
-1.81567e-07
1.17054e-06
-1.57253e-07
1.11909e-06
-8.37061e-08
9.31382e-07
4.86479e-07
-7.64337e-08
-7.64337e-08
3.50931e-06
-1.55313e-07
-7.7171e-08
3.52991e-06
-2.38218e-07
-7.85132e-08
3.57202e-06
-3.23564e-07
-8.02115e-08
3.63474e-06
-4.0186e-07
-8.17135e-08
3.70626e-06
-4.49008e-07
-8.205e-08
3.74547e-06
-4.26003e-07
-7.9574e-08
3.65529e-06
-3.04004e-07
-7.141e-08
3.26992e-06
-1.18645e-07
-5.35887e-08
2.40307e-06
-2.24272e-08
9.70164e-07
-7.71709e-08
-1.55313e-07
3.52991e-06
-1.56781e-07
-1.56781e-07
3.55044e-06
-2.4038e-07
-1.59496e-07
3.59235e-06
-3.26305e-07
-1.63017e-07
3.65481e-06
-4.04941e-07
-1.66294e-07
3.72606e-06
-4.52067e-07
-1.67334e-07
3.76502e-06
-4.2864e-07
-1.62607e-07
3.67448e-06
-3.05643e-07
-1.46163e-07
3.2879e-06
-1.18859e-07
-1.09556e-07
2.41758e-06
-4.53173e-08
9.76576e-07
-7.85132e-08
-2.38218e-07
3.57202e-06
-1.59496e-07
-2.4038e-07
3.59235e-06
-2.44471e-07
-2.44471e-07
3.63389e-06
-3.31653e-07
-2.49989e-07
3.69585e-06
-4.11191e-07
-2.55504e-07
3.76659e-06
-4.58558e-07
-2.57957e-07
3.80506e-06
-4.34417e-07
-2.51569e-07
3.71368e-06
-3.09657e-07
-2.26566e-07
3.3245e-06
-1.2045e-07
-1.6943e-07
2.44679e-06
-6.95099e-08
9.89791e-07
-8.02116e-08
-3.23564e-07
3.63474e-06
-1.63017e-07
-3.26305e-07
3.65481e-06
-2.49989e-07
-3.31652e-07
3.69585e-06
-3.39238e-07
-3.39238e-07
3.75717e-06
-4.20584e-07
-3.47485e-07
3.82726e-06
-4.68907e-07
-3.52334e-07
3.86505e-06
-4.4414e-07
-3.45344e-07
3.77226e-06
-3.1669e-07
-3.11944e-07
3.37869e-06
-1.233e-07
-2.3277e-07
2.48936e-06
-9.46478e-08
1.00884e-06
-8.17135e-08
-4.0186e-07
3.70626e-06
-1.66294e-07
-4.04941e-07
3.72606e-06
-2.55504e-07
-4.1119e-07
3.76659e-06
-3.47485e-07
-4.20583e-07
3.82726e-06
-4.31749e-07
-4.31748e-07
3.89673e-06
-4.82315e-07
-4.39951e-07
3.9339e-06
-4.57719e-07
-4.34005e-07
3.83956e-06
-3.27122e-07
-3.93852e-07
3.44068e-06
-1.27761e-07
-2.93735e-07
2.5376e-06
-1.18669e-07
1.03047e-06
-8.20499e-08
-4.49007e-07
3.74547e-06
-1.67334e-07
-4.52066e-07
3.76502e-06
-2.57956e-07
-4.58557e-07
3.80506e-06
-3.52335e-07
-4.68906e-07
3.86505e-06
-4.39952e-07
-4.82313e-07
3.9339e-06
-4.94073e-07
-4.94072e-07
3.97088e-06
-4.71419e-07
-4.91169e-07
3.87657e-06
-3.38895e-07
-4.48929e-07
3.47628e-06
-1.33334e-07
-3.36067e-07
2.56705e-06
-1.36038e-07
1.04557e-06
-7.95739e-08
-4.26003e-07
3.6553e-06
-1.62607e-07
-4.28639e-07
3.67448e-06
-2.51568e-07
-4.34416e-07
3.71368e-06
-3.45344e-07
-4.44138e-07
3.77226e-06
-4.34005e-07
-4.57718e-07
3.83956e-06
-4.9117e-07
-4.71418e-07
3.87657e-06
-4.72848e-07
-4.72846e-07
3.78745e-06
-3.43514e-07
-4.36831e-07
3.40207e-06
-1.37033e-07
-3.30886e-07
2.52008e-06
-1.36482e-07
1.03395e-06
-7.141e-08
-3.04004e-07
3.26992e-06
-1.46163e-07
-3.05642e-07
3.2879e-06
-2.26566e-07
-3.09656e-07
3.3245e-06
-3.11944e-07
-3.1669e-07
3.37869e-06
-3.93853e-07
-3.2712e-07
3.44069e-06
-4.4893e-07
-3.38894e-07
3.47628e-06
-4.36832e-07
-3.43513e-07
3.40207e-06
-3.22409e-07
-3.22408e-07
3.06836e-06
-1.3179e-07
-2.50588e-07
2.29251e-06
-1.08376e-07
9.59191e-07
-5.35886e-08
-1.18645e-07
2.40307e-06
-1.09556e-07
-1.18859e-07
2.41758e-06
-1.6943e-07
-1.2045e-07
2.44679e-06
-2.3277e-07
-1.23299e-07
2.48936e-06
-2.93735e-07
-1.2776e-07
2.5376e-06
-3.36068e-07
-1.33334e-07
2.56705e-06
-3.30887e-07
-1.37033e-07
2.52008e-06
-2.50589e-07
-1.3179e-07
2.29251e-06
-1.08088e-07
-1.08088e-07
1.74785e-06
-5.24029e-08
7.67319e-07
-2.24272e-08
9.70164e-07
-4.53172e-08
9.76576e-07
-6.95097e-08
9.89791e-07
-9.46477e-08
1.00884e-06
-1.18669e-07
1.03047e-06
-1.36038e-07
1.04557e-06
-1.36483e-07
1.03395e-06
-1.08377e-07
9.59191e-07
-5.24028e-08
7.67319e-07
3.81674e-07
-7.89522e-08
-7.89522e-08
3.66722e-06
-1.58943e-07
-7.98353e-08
3.68974e-06
-2.3958e-07
-8.14383e-08
3.7341e-06
-3.16349e-07
-8.34283e-08
3.79493e-06
-3.76632e-07
-8.50923e-08
3.85164e-06
-3.96871e-07
-8.5177e-08
3.85088e-06
-3.49293e-07
-8.16547e-08
3.68937e-06
-2.2773e-07
-7.14321e-08
3.21979e-06
-7.98524e-08
-5.11201e-08
2.30632e-06
-1.97651e-08
9.10076e-07
-7.98352e-08
-1.58943e-07
3.68974e-06
-1.60715e-07
-1.60715e-07
3.7122e-06
-2.42218e-07
-1.63982e-07
3.7564e-06
-3.19743e-07
-1.68138e-07
3.81704e-06
-3.80515e-07
-1.718e-07
3.87354e-06
-4.00784e-07
-1.72383e-07
3.8725e-06
-3.52661e-07
-1.65575e-07
3.71027e-06
-2.29875e-07
-1.45013e-07
3.23869e-06
-8.0362e-08
-1.0373e-07
2.32068e-06
-3.96787e-08
9.16127e-07
-8.14383e-08
-2.3958e-07
3.7341e-06
-1.63982e-07
-2.42218e-07
3.7564e-06
-2.47199e-07
-2.47199e-07
3.80032e-06
-3.26344e-07
-2.53778e-07
3.86063e-06
-3.88332e-07
-2.60006e-07
3.91678e-06
-4.08961e-07
-2.61882e-07
3.91519e-06
-3.59894e-07
-2.52417e-07
3.75145e-06
-2.34767e-07
-2.21363e-07
3.27572e-06
-8.22452e-08
-1.57952e-07
2.34849e-06
-5.99901e-08
9.27857e-07
-8.34284e-08
-3.16349e-07
3.79493e-06
-1.68138e-07
-3.19743e-07
3.81704e-06
-2.53778e-07
-3.26344e-07
3.86063e-06
-3.35477e-07
-3.35476e-07
3.92057e-06
-3.997e-07
-3.44852e-07
3.97633e-06
-4.21435e-07
-3.49089e-07
3.97399e-06
-3.71402e-07
-3.38139e-07
3.80795e-06
-2.42814e-07
-2.9721e-07
3.32595e-06
-8.53818e-08
-2.11591e-07
2.38557e-06
-7.98744e-08
9.43339e-07
-8.50923e-08
-3.76632e-07
3.85164e-06
-1.718e-07
-3.80514e-07
3.87354e-06
-2.60006e-07
-3.88331e-07
3.91678e-06
-3.44852e-07
-3.99699e-07
3.97633e-06
-4.12357e-07
-4.12356e-07
4.03174e-06
-4.36397e-07
-4.19905e-07
4.02876e-06
-3.86113e-07
-4.09354e-07
3.86049e-06
-2.53673e-07
-3.61235e-07
3.37227e-06
-8.98585e-08
-2.57132e-07
2.41933e-06
-9.69357e-08
9.57671e-07
-8.51769e-08
-3.96871e-07
3.85088e-06
-1.72383e-07
-4.00783e-07
3.8725e-06
-2.61882e-07
-4.08961e-07
3.91518e-06
-3.49089e-07
-4.21434e-07
3.97399e-06
-4.19906e-07
-4.36396e-07
4.02876e-06
-4.47303e-07
-4.47302e-07
4.02568e-06
-3.98607e-07
-4.39532e-07
3.85806e-06
-2.64144e-07
-3.90474e-07
3.37106e-06
-9.4757e-08
-2.79284e-07
2.41981e-06
-1.06292e-07
9.60166e-07
-8.16546e-08
-3.49293e-07
3.68937e-06
-1.65575e-07
-3.5266e-07
3.71027e-06
-2.52417e-07
-3.59894e-07
3.75145e-06
-3.38139e-07
-3.71401e-07
3.80795e-06
-4.09354e-07
-3.86112e-07
3.86049e-06
-4.39533e-07
-3.98606e-07
3.85806e-06
-3.95493e-07
-3.95492e-07
3.69937e-06
-2.65398e-07
-3.55162e-07
3.23666e-06
-9.70493e-08
-2.57515e-07
2.32996e-06
-1.00798e-07
9.31404e-07
-7.1432e-08
-2.2773e-07
3.21979e-06
-1.45013e-07
-2.29874e-07
3.23869e-06
-2.21363e-07
-2.34766e-07
3.27572e-06
-2.9721e-07
-2.42813e-07
3.32595e-06
-3.61235e-07
-2.53672e-07
3.37227e-06
-3.90474e-07
-2.64143e-07
3.37106e-06
-3.55163e-07
-2.65397e-07
3.23666e-06
-2.42461e-07
-2.42461e-07
2.84295e-06
-9.1242e-08
-1.80857e-07
2.06463e-06
-7.48489e-08
8.42e-07
-5.112e-08
-7.98523e-08
2.30632e-06
-1.0373e-07
-8.03619e-08
2.32068e-06
-1.57952e-07
-8.22451e-08
2.34849e-06
-2.11591e-07
-8.53816e-08
2.38557e-06
-2.57132e-07
-8.98582e-08
2.41933e-06
-2.79284e-07
-9.47568e-08
2.41981e-06
-2.57515e-07
-9.70492e-08
2.32996e-06
-1.80857e-07
-9.12419e-08
2.06463e-06
-7.20762e-08
-7.20761e-08
1.53029e-06
-3.35522e-08
6.53946e-07
-1.97651e-08
9.10076e-07
-3.96787e-08
9.16127e-07
-5.999e-08
9.27858e-07
-7.98744e-08
9.43339e-07
-9.69357e-08
9.57672e-07
-1.06292e-07
9.60166e-07
-1.00798e-07
9.31404e-07
-7.48489e-08
8.42e-07
-3.35521e-08
6.53946e-07
3.14569e-07
-7.88255e-08
-7.88255e-08
3.82487e-06
-1.57192e-07
-7.98613e-08
3.84797e-06
-2.32845e-07
-8.17316e-08
3.89148e-06
-2.99124e-07
-8.39967e-08
3.94521e-06
-3.42365e-07
-8.57548e-08
3.98063e-06
-3.42506e-07
-8.54661e-08
3.93649e-06
-2.83011e-07
-8.08126e-08
3.71069e-06
-1.71676e-07
-6.87708e-08
3.17722e-06
-5.53299e-08
-4.69716e-08
2.23694e-06
-1.68445e-08
8.71591e-07
-7.98613e-08
-1.57192e-07
3.84797e-06
-1.5928e-07
-1.5928e-07
3.87103e-06
-2.35973e-07
-1.63107e-07
3.91447e-06
-3.03173e-07
-1.67853e-07
3.9681e-06
-3.47015e-07
-1.71742e-07
4.00337e-06
-3.47188e-07
-1.716e-07
3.9588e-06
-2.86997e-07
-1.62549e-07
3.73182e-06
-1.74209e-07
-1.38429e-07
3.19556e-06
-5.60371e-08
-9.45308e-08
2.25007e-06
-3.35765e-08
8.76822e-07
-8.17316e-08
-2.32845e-07
3.89148e-06
-1.63107e-07
-2.35973e-07
3.91447e-06
-2.41835e-07
-2.41835e-07
3.95778e-06
-3.10967e-07
-2.49362e-07
4.01128e-06
-3.56235e-07
-2.55992e-07
4.0463e-06
-3.56752e-07
-2.56818e-07
4.00092e-06
-2.95312e-07
-2.44055e-07
3.77152e-06
-1.79688e-07
-2.08021e-07
3.22969e-06
-5.80921e-08
-1.41753e-07
2.27412e-06
-5.01152e-08
8.86304e-07
-8.39968e-08
-2.99124e-07
3.94521e-06
-1.67853e-07
-3.03173e-07
3.9681e-06
-2.49362e-07
-3.10967e-07
4.01128e-06
-3.21398e-07
-3.21398e-07
4.06464e-06
-3.69111e-07
-3.31338e-07
4.09939e-06
-3.70648e-07
-3.34197e-07
4.05291e-06
-3.07816e-07
-3.19059e-07
3.82012e-06
-1.8818e-07
-2.72435e-07
3.27072e-06
-6.13324e-08
-1.85358e-07
2.30233e-06
-6.54122e-08
8.97303e-07
-8.57548e-08
-3.42365e-07
3.98063e-06
-1.71742e-07
-3.47015e-07
4.00337e-06
-2.55992e-07
-3.56234e-07
4.0463e-06
-3.31338e-07
-3.6911e-07
4.09939e-06
-3.8235e-07
-3.82349e-07
4.13376e-06
-3.85939e-07
-3.88142e-07
4.0863e-06
-3.22411e-07
-3.72838e-07
3.85075e-06
-1.98645e-07
-3.19502e-07
3.29557e-06
-6.55795e-08
-2.17632e-07
2.31854e-06
-7.71787e-08
9.03858e-07
-8.54661e-08
-3.42506e-07
3.93649e-06
-1.716e-07
-3.47188e-07
3.9588e-06
-2.56818e-07
-3.56752e-07
4.00092e-06
-3.34197e-07
-3.70647e-07
4.05291e-06
-3.88143e-07
-3.85938e-07
4.0863e-06
-3.94675e-07
-3.94675e-07
4.03874e-06
-3.32536e-07
-3.82105e-07
3.80518e-06
-2.07182e-07
-3.2962e-07
3.25582e-06
-6.96498e-08
-2.26059e-07
2.29071e-06
-8.15657e-08
8.94903e-07
-8.08126e-08
-2.83011e-07
3.71069e-06
-1.62549e-07
-2.86997e-07
3.73182e-06
-2.44055e-07
-2.95311e-07
3.77152e-06
-3.1906e-07
-3.07815e-07
3.82012e-06
-3.72839e-07
-3.2241e-07
3.85075e-06
-3.82106e-07
-3.32535e-07
3.80518e-06
-3.25249e-07
-3.25248e-07
3.58566e-06
-2.05566e-07
-2.83754e-07
3.07111e-06
-7.07497e-08
-1.97775e-07
2.16686e-06
-7.39855e-08
8.53074e-07
-6.87707e-08
-1.71675e-07
3.17722e-06
-1.38429e-07
-1.74208e-07
3.19556e-06
-2.08021e-07
-1.79688e-07
3.22969e-06
-2.72435e-07
-1.8818e-07
3.27072e-06
-3.19502e-07
-1.98644e-07
3.29557e-06
-3.2962e-07
-2.07182e-07
3.25582e-06
-2.83755e-07
-2.05565e-07
3.07112e-06
-1.82687e-07
-1.82686e-07
2.64082e-06
-6.48632e-08
-1.31301e-07
1.88033e-06
-5.22188e-08
7.5537e-07
-4.69715e-08
-5.53299e-08
2.23694e-06
-9.45306e-08
-5.60371e-08
2.25007e-06
-1.41753e-07
-5.8092e-08
2.27412e-06
-1.85357e-07
-6.13322e-08
2.30233e-06
-2.17632e-07
-6.55793e-08
2.31854e-06
-2.26059e-07
-6.96496e-08
2.29071e-06
-1.97775e-07
-7.07496e-08
2.16686e-06
-1.31301e-07
-6.48631e-08
1.88033e-06
-4.94045e-08
-4.94045e-08
1.3665e-06
-2.20891e-08
5.74412e-07
-1.68445e-08
8.71591e-07
-3.35765e-08
8.76822e-07
-5.01152e-08
8.86304e-07
-6.54122e-08
8.97303e-07
-7.71786e-08
9.03859e-07
-8.15656e-08
8.94903e-07
-7.39854e-08
8.53074e-07
-5.22187e-08
7.5537e-07
-2.2089e-08
5.74412e-07
2.70391e-07
-7.67623e-08
-7.67623e-08
3.97839e-06
-1.51642e-07
-7.79448e-08
4.00079e-06
-2.20827e-07
-8.00614e-08
4.04073e-06
-2.76395e-07
-8.2545e-08
4.08332e-06
-3.05203e-07
-8.42912e-08
4.09373e-06
-2.91828e-07
-8.35054e-08
4.00662e-06
-2.28813e-07
-7.77174e-08
3.72539e-06
-1.311e-07
-6.42397e-08
3.14375e-06
-3.96151e-08
-4.19157e-08
2.18737e-06
-1.39733e-08
8.45949e-07
-7.79448e-08
-1.51642e-07
4.00079e-06
-1.54029e-07
-1.54029e-07
4.0232e-06
-2.24409e-07
-1.58361e-07
4.06315e-06
-2.81027e-07
-1.6356e-07
4.10573e-06
-3.10498e-07
-1.67431e-07
4.11598e-06
-2.97114e-07
-1.66293e-07
4.02821e-06
-2.33248e-07
-1.5501e-07
3.74525e-06
-1.33893e-07
-1.28181e-07
3.16015e-06
-4.04563e-08
-8.36381e-08
2.19835e-06
-2.76592e-08
8.50051e-07
-8.00613e-08
-2.20827e-07
4.04073e-06
-1.58361e-07
-2.24409e-07
4.06315e-06
-2.31035e-07
-2.31035e-07
4.10313e-06
-2.89798e-07
-2.39245e-07
4.14572e-06
-3.20774e-07
-2.45837e-07
4.15568e-06
-3.07614e-07
-2.45162e-07
4.06663e-06
-2.42201e-07
-2.29188e-07
3.78028e-06
-1.39677e-07
-1.89638e-07
3.18862e-06