/*--------------------------------*- C++ -*----------------------------------*\
| =========                 |                                                 |
| \\      /  F ield         | OpenFOAM: The Open Source CFD Toolbox           |
|  \\    /   O peration     | Version:  2212                                  |
|   \\  /    A nd           | Website:  www.openfoam.com                      |
|    \\/     M anipulation  |                                                 |
\*---------------------------------------------------------------------------*/
FoamFile
{
    version     2.0;
    format      ascii;
    arch        "LSB;label=32;scalar=64";
    class       volVectorField;
    location    "100";
    object      U;
}
// * * * * * * * * * * * * * * * * * * * * * * * * * * * * * * * * * * * * * //

dimensions      [0 1 -1 0 0 0 0];

internalField   nonuniform List<vector> 
10000
(
(0.000292358 -4.92554e-07 -4.92554e-07)
(0.000292384 -1.50636e-06 -4.98729e-07)
(0.000292424 -2.67409e-06 -5.06645e-07)
(0.000292502 -4.19082e-06 -5.17449e-07)
(0.000292679 -6.3836e-06 -5.30321e-07)
(0.000293077 -9.85766e-06 -5.3791e-07)
(0.000293923 -1.58834e-05 -5.18613e-07)
(0.000296549 -2.89036e-05 -5.34634e-07)
(0.000300528 -4.84133e-05 -6.41705e-07)
(0.000241884 -2.7302e-05 9.76289e-08)
(0.000292384 -4.98729e-07 -1.50636e-06)
(0.000292414 -1.52061e-06 -1.52061e-06)
(0.000292454 -2.6932e-06 -1.54368e-06)
(0.000292534 -4.21564e-06 -1.57647e-06)
(0.000292713 -6.40687e-06 -1.61626e-06)
(0.000293098 -9.8513e-06 -1.64977e-06)
(0.000293914 -1.58902e-05 -1.64176e-06)
(0.000296589 -2.90576e-05 -1.66099e-06)
(0.000300548 -4.78046e-05 -1.74979e-06)
(0.000241107 -2.65146e-05 -5.85817e-07)
(0.000292424 -5.06643e-07 -2.67409e-06)
(0.000292454 -1.54368e-06 -2.69319e-06)
(0.000292495 -2.73073e-06 -2.73072e-06)
(0.000292575 -4.26651e-06 -2.78618e-06)
(0.000292753 -6.46545e-06 -2.85537e-06)
(0.000293133 -9.90215e-06 -2.92645e-06)
(0.000293939 -1.59328e-05 -2.97285e-06)
(0.000296631 -2.91136e-05 -2.97948e-06)
(0.000300569 -4.76674e-05 -2.8866e-06)
(0.000240986 -2.6336e-05 -2.00166e-06)
(0.000292502 -5.17443e-07 -4.19082e-06)
(0.000292534 -1.57647e-06 -4.21565e-06)
(0.000292575 -2.78619e-06 -4.26652e-06)
(0.000292654 -4.34371e-06 -4.34372e-06)
(0.000292831 -6.55932e-06 -4.44354e-06)
(0.000293209 -9.99978e-06 -4.55381e-06)
(0.000294013 -1.60159e-05 -4.64554e-06)
(0.000296706 -2.91644e-05 -4.66384e-06)
(0.000300643 -4.76573e-05 -4.48292e-06)
(0.000241076 -2.63208e-05 -3.32807e-06)
(0.000292679 -5.3032e-07 -6.38362e-06)
(0.000292713 -1.61626e-06 -6.40691e-06)
(0.000292753 -2.85539e-06 -6.46551e-06)
(0.000292831 -4.44354e-06 -6.55938e-06)
(0.000293007 -6.68689e-06 -6.68695e-06)
(0.000293383 -1.0143e-05 -6.83763e-06)
(0.000294183 -1.61474e-05 -6.97815e-06)
(0.000296871 -2.92471e-05 -7.02285e-06)
(0.000300819 -4.76888e-05 -6.76593e-06)
(0.000241269 -2.63182e-05 -5.07083e-06)
(0.000293077 -5.37921e-07 -9.85767e-06)
(0.000293098 -1.6498e-06 -9.85133e-06)
(0.000293133 -2.92648e-06 -9.9022e-06)
(0.000293209 -4.55381e-06 -9.99982e-06)
(0.000293383 -6.83757e-06 -1.0143e-05)
(0.000293755 -1.03259e-05 -1.03259e-05)
(0.000294547 -1.63307e-05 -1.0515e-05)
(0.000297221 -2.93727e-05 -1.05942e-05)
(0.00030118 -4.7748e-05 -1.02338e-05)
(0.000241643 -2.62974e-05 -7.6757e-06)
(0.000293923 -5.18627e-07 -1.58834e-05)
(0.000293914 -1.64179e-06 -1.58902e-05)
(0.000293939 -2.97288e-06 -1.59328e-05)
(0.000294013 -4.64554e-06 -1.60158e-05)
(0.000294183 -6.97809e-06 -1.61474e-05)
(0.000294547 -1.0515e-05 -1.63306e-05)
(0.000295321 -1.65407e-05 -1.65407e-05)
(0.000297958 -2.9529e-05 -1.66442e-05)
(0.000301907 -4.78162e-05 -1.61085e-05)
(0.000242373 -2.61717e-05 -1.20156e-05)
(0.000296549 -5.34635e-07 -2.89035e-05)
(0.000296589 -1.66099e-06 -2.90576e-05)
(0.000296631 -2.97949e-06 -2.91135e-05)
(0.000296706 -4.66384e-06 -2.91643e-05)
(0.000296871 -7.02281e-06 -2.9247e-05)
(0.000297221 -1.05941e-05 -2.93726e-05)
(0.000297958 -1.66443e-05 -2.95289e-05)
(0.000300495 -2.95832e-05 -2.95832e-05)
(0.000304271 -4.77729e-05 -2.85686e-05)
(0.000244355 -2.60356e-05 -2.1033e-05)
(0.000300528 -6.41701e-07 -4.84133e-05)
(0.000300548 -1.74978e-06 -4.78045e-05)
(0.000300569 -2.8866e-06 -4.76674e-05)
(0.000300643 -4.48291e-06 -4.76573e-05)
(0.000300819 -6.7659e-06 -4.76888e-05)
(0.00030118 -1.02338e-05 -4.7748e-05)
(0.000301907 -1.61085e-05 -4.78162e-05)
(0.000304271 -2.85687e-05 -4.77729e-05)
(0.000307571 -4.61088e-05 -4.61088e-05)
(0.000247796 -2.59984e-05 -3.4108e-05)
(0.000241884 9.76323e-08 -2.7302e-05)
(0.000241107 -5.8581e-07 -2.65146e-05)
(0.000240986 -2.00165e-06 -2.6336e-05)
(0.000241076 -3.32807e-06 -2.63208e-05)
(0.000241269 -5.07082e-06 -2.63182e-05)
(0.000241643 -7.6757e-06 -2.62974e-05)
(0.000242373 -1.20156e-05 -2.61717e-05)
(0.000244355 -2.10331e-05 -2.60356e-05)
(0.000247796 -3.4108e-05 -2.59984e-05)
(0.000207623 -1.9096e-05 -1.9096e-05)
(0.000296053 -1.45384e-06 -1.45384e-06)
(0.000296289 -4.47694e-06 -1.46646e-06)
(0.000296806 -7.95119e-06 -1.48673e-06)
(0.000297806 -1.23301e-05 -1.5145e-06)
(0.000299695 -1.8331e-05 -1.54625e-06)
(0.0003032 -2.70111e-05 -1.57225e-06)
(0.000309233 -3.95036e-05 -1.5607e-06)
(0.000317375 -5.7638e-05 -1.57474e-06)
(0.000312446 -7.22092e-05 -1.70969e-06)
(0.000208487 -3.05177e-05 -9.24153e-07)
(0.000296289 -1.46646e-06 -4.47694e-06)
(0.000296528 -4.51035e-06 -4.51035e-06)
(0.000297044 -8.00148e-06 -4.57257e-06)
(0.000298039 -1.23968e-05 -4.6599e-06)
(0.00029992 -1.84066e-05 -4.76058e-06)
(0.000303394 -2.7063e-05 -4.84728e-06)
(0.000309376 -3.95822e-05 -4.85178e-06)
(0.000317588 -5.79776e-05 -4.81014e-06)
(0.000312691 -7.21188e-05 -4.71939e-06)
(0.000207668 -3.0252e-05 -2.76029e-06)
(0.000296806 -1.48672e-06 -7.95119e-06)
(0.000297044 -4.57257e-06 -8.00147e-06)
(0.000297556 -8.10563e-06 -8.10563e-06)
(0.000298544 -1.25376e-05 -8.25589e-06)
(0.000300413 -1.85706e-05 -8.43309e-06)
(0.000303865 -2.72174e-05 -8.59554e-06)
(0.000309822 -3.97076e-05 -8.65756e-06)
(0.000318061 -5.81125e-05 -8.49893e-06)
(0.00031316 -7.20865e-05 -7.77952e-06)
(0.00020779 -3.01703e-05 -4.81955e-06)
(0.000297806 -1.51448e-06 -1.23302e-05)
(0.000298039 -4.6599e-06 -1.23968e-05)
(0.000298544 -8.25589e-06 -1.25377e-05)
(0.000299521 -1.27458e-05 -1.27459e-05)
(0.000301371 -1.88215e-05 -1.30009e-05)
(0.000304797 -2.74753e-05 -1.32503e-05)
(0.000310727 -3.99209e-05 -1.33804e-05)
(0.000318957 -5.82365e-05 -1.31525e-05)
(0.000314045 -7.20946e-05 -1.1931e-05)
(0.000208429 -3.0143e-05 -7.45792e-06)
(0.000299695 -1.54625e-06 -1.83311e-05)
(0.00029992 -4.76061e-06 -1.84067e-05)
(0.000300413 -8.43312e-06 -1.85708e-05)
(0.000301371 -1.30008e-05 -1.88216e-05)
(0.000303193 -1.91452e-05 -1.91453e-05)
(0.000306576 -2.78344e-05 -1.94881e-05)
(0.000312453 -4.02461e-05 -1.97074e-05)
(0.000320637 -5.84374e-05 -1.9435e-05)
(0.000315683 -7.21679e-05 -1.76543e-05)
(0.00020964 -3.01449e-05 -1.10387e-05)
(0.0003032 -1.57231e-06 -2.70112e-05)
(0.000303394 -4.84736e-06 -2.7063e-05)
(0.000303865 -8.5956e-06 -2.72174e-05)
(0.000304797 -1.32502e-05 -2.74753e-05)
(0.000306576 -1.9488e-05 -2.78345e-05)
(0.000309891 -2.82547e-05 -2.82548e-05)
(0.000315671 -4.06778e-05 -2.85789e-05)
(0.000323747 -5.87546e-05 -2.82908e-05)
(0.000318654 -7.23276e-05 -2.57951e-05)
(0.0002118 -3.01647e-05 -1.60652e-05)
(0.000309233 -1.56076e-06 -3.95035e-05)
(0.000309376 -4.85185e-06 -3.95821e-05)
(0.000309822 -8.65761e-06 -3.97075e-05)
(0.000310727 -1.33803e-05 -3.99207e-05)
(0.000312453 -1.97072e-05 -4.02459e-05)
(0.000315671 -2.85789e-05 -4.06777e-05)
(0.000321306 -4.10866e-05 -4.10865e-05)
(0.000329198 -5.91393e-05 -4.08471e-05)
(0.000323825 -7.25746e-05 -3.75096e-05)
(0.000215535 -3.01533e-05 -2.32047e-05)
(0.000317375 -1.57475e-06 -5.76378e-05)
(0.000317588 -4.81014e-06 -5.79775e-05)
(0.000318061 -8.49893e-06 -5.81124e-05)
(0.000318957 -1.31525e-05 -5.82362e-05)
(0.000320638 -1.94349e-05 -5.84372e-05)
(0.000323748 -2.82908e-05 -5.87544e-05)
(0.000329199 -4.08472e-05 -5.91391e-05)
(0.000336902 -5.90331e-05 -5.9033e-05)
(0.000331384 -7.26681e-05 -5.49125e-05)
(0.000221412 -3.0412e-05 -3.39752e-05)
(0.000312446 -1.70965e-06 -7.22092e-05)
(0.000312691 -4.71936e-06 -7.21187e-05)
(0.00031316 -7.7795e-06 -7.20864e-05)
(0.000314045 -1.1931e-05 -7.20946e-05)
(0.000315683 -1.76542e-05 -7.21678e-05)
(0.000318654 -2.57951e-05 -7.23276e-05)
(0.000323825 -3.75097e-05 -7.25746e-05)
(0.000331384 -5.49127e-05 -7.2668e-05)
(0.000327684 -6.88507e-05 -6.88506e-05)
(0.000223788 -3.04903e-05 -4.37811e-05)
(0.000208487 -9.24138e-07 -3.05177e-05)
(0.000207668 -2.76027e-06 -3.0252e-05)
(0.00020779 -4.81953e-06 -3.01703e-05)
(0.000208429 -7.4579e-06 -3.0143e-05)
(0.00020964 -1.10387e-05 -3.01449e-05)
(0.0002118 -1.60652e-05 -3.01648e-05)
(0.000215535 -2.32048e-05 -3.01534e-05)
(0.000221412 -3.39752e-05 -3.0412e-05)
(0.000223788 -4.37812e-05 -3.04903e-05)
(0.000167752 -1.88387e-05 -1.88387e-05)
(0.000303782 -2.31743e-06 -2.31743e-06)
(0.000304397 -7.11348e-06 -2.3369e-06)
(0.000305789 -1.25218e-05 -2.37025e-06)
(0.000308354 -1.90854e-05 -2.41526e-06)
(0.000312765 -2.75127e-05 -2.46405e-06)
(0.000319803 -3.85072e-05 -2.50305e-06)
(0.000328865 -5.16167e-05 -2.49238e-06)
(0.00033225 -6.34561e-05 -2.40942e-06)
(0.000301178 -6.15405e-05 -2.22048e-06)
(0.000166397 -1.75833e-05 -1.16248e-06)
(0.000304397 -2.3369e-06 -7.11348e-06)
(0.00030501 -7.1675e-06 -7.1675e-06)
(0.000306393 -1.26062e-05 -7.26739e-06)
(0.000308944 -1.91982e-05 -7.40355e-06)
(0.000313336 -2.76461e-05 -7.5509e-06)
(0.000320346 -3.86306e-05 -7.66296e-06)
(0.000329378 -5.17218e-05 -7.63715e-06)
(0.000332854 -6.36609e-05 -7.35117e-06)
(0.000302025 -6.15649e-05 -6.52386e-06)
(0.000166778 -1.75525e-05 -3.51208e-06)
(0.000305789 -2.37024e-06 -1.25218e-05)
(0.000306393 -7.26739e-06 -1.26063e-05)
(0.000307763 -1.27708e-05 -1.27708e-05)
(0.000310291 -1.94193e-05 -1.29998e-05)
(0.000314651 -2.79035e-05 -1.32531e-05)
(0.000321621 -3.88805e-05 -1.345e-05)
(0.000330623 -5.19163e-05 -1.34331e-05)
(0.00033413 -6.38102e-05 -1.29121e-05)
(0.000303334 -6.16074e-05 -1.11775e-05)
(0.000167589 -1.7554e-05 -6.12714e-06)
(0.000308354 -2.41525e-06 -1.90855e-05)
(0.000308944 -7.40355e-06 -1.91983e-05)
(0.000310291 -1.29997e-05 -1.94194e-05)
(0.000312783 -1.97359e-05 -1.9736e-05)
(0.000317089 -2.82863e-05 -2.0104e-05)
(0.000323994 -3.92803e-05 -2.04164e-05)
(0.000332938 -5.22611e-05 -2.0448e-05)
(0.000336429 -6.40454e-05 -1.97123e-05)
(0.000305551 -6.17209e-05 -1.70101e-05)
(0.000169016 -1.75724e-05 -9.32249e-06)
(0.000312765 -2.46407e-06 -2.75128e-05)
(0.000313336 -7.55095e-06 -2.76462e-05)
(0.000314651 -1.32532e-05 -2.79036e-05)
(0.000317089 -2.01039e-05 -2.82865e-05)
(0.000321315 -2.87619e-05 -2.87621e-05)
(0.000328114 -3.98256e-05 -2.92148e-05)
(0.000336954 -5.27963e-05 -2.93467e-05)
(0.000340365 -6.44675e-05 -2.84133e-05)
(0.000309259 -6.19888e-05 -2.45462e-05)
(0.000171374 -1.76434e-05 -1.33736e-05)
(0.000319803 -2.50315e-06 -3.85073e-05)
(0.000320346 -7.66307e-06 -3.86307e-05)
(0.000321621 -1.345e-05 -3.88806e-05)
(0.000323994 -2.04163e-05 -3.92803e-05)
(0.000328114 -2.92146e-05 -3.98257e-05)
(0.000334768 -4.04227e-05 -4.04227e-05)
(0.000343449 -5.3493e-05 -4.07193e-05)
(0.000346707 -6.51389e-05 -3.96487e-05)
(0.000315158 -6.24911e-05 -3.43683e-05)
(0.000175072 -1.77978e-05 -1.85531e-05)
(0.000328865 -2.49245e-06 -5.16165e-05)
(0.000329378 -7.63721e-06 -5.17216e-05)
(0.000330623 -1.34331e-05 -5.1916e-05)
(0.000332939 -2.0448e-05 -5.22608e-05)
(0.000336954 -2.93465e-05 -5.2796e-05)
(0.000343449 -4.07193e-05 -5.34927e-05)
(0.00035197 -5.40151e-05 -5.40149e-05)
(0.00035512 -6.58537e-05 -5.30005e-05)
(0.000323118 -6.31689e-05 -4.63038e-05)
(0.000180193 -1.80265e-05 -2.47516e-05)
(0.00033225 -2.40936e-06 -6.34559e-05)
(0.000332854 -7.35112e-06 -6.36607e-05)
(0.00033413 -1.2912e-05 -6.38099e-05)
(0.000336429 -1.97122e-05 -6.40451e-05)
(0.000340365 -2.84132e-05 -6.44672e-05)
(0.000346707 -3.96488e-05 -6.51386e-05)
(0.00035512 -5.30008e-05 -6.58535e-05)
(0.000358605 -6.5254e-05 -6.52538e-05)
(0.000327653 -6.32088e-05 -5.80073e-05)
(0.000184588 -1.83821e-05 -3.1086e-05)
(0.000301178 -2.2204e-06 -6.15404e-05)
(0.000302025 -6.52379e-06 -6.15649e-05)
(0.000303334 -1.11774e-05 -6.16073e-05)
(0.000305551 -1.701e-05 -6.17209e-05)
(0.000309259 -2.45461e-05 -6.19888e-05)
(0.000315158 -3.43683e-05 -6.24912e-05)
(0.000323118 -4.63039e-05 -6.31689e-05)
(0.000327653 -5.80076e-05 -6.32088e-05)
(0.000303579 -5.78262e-05 -5.78261e-05)
(0.000177373 -1.80269e-05 -3.2181e-05)
(0.000166397 -1.16246e-06 -1.75833e-05)
(0.000166778 -3.51204e-06 -1.75525e-05)
(0.000167589 -6.12711e-06 -1.75541e-05)
(0.000169016 -9.32245e-06 -1.75725e-05)
(0.000171374 -1.33735e-05 -1.76435e-05)
(0.000175072 -1.85532e-05 -1.77979e-05)
(0.000180193 -2.47517e-05 -1.80266e-05)
(0.000184587 -3.10861e-05 -1.83821e-05)
(0.000177373 -3.2181e-05 -1.80269e-05)
(0.000116954 -9.47674e-06 -9.47674e-06)
(0.000314819 -3.00462e-06 -3.00462e-06)
(0.000315908 -9.18258e-06 -3.03065e-06)
(0.000318316 -1.59901e-05 -3.0758e-06)
(0.000322523 -2.39071e-05 -3.13474e-06)
(0.000329098 -3.33663e-05 -3.19282e-06)
(0.000337894 -4.43147e-05 -3.22655e-06)
(0.000345139 -5.46722e-05 -3.18581e-06)
(0.000336557 -5.83399e-05 -2.98247e-06)
(0.000280084 -4.55001e-05 -2.47372e-06)
(0.000132324 -8.90035e-06 -1.16277e-06)
(0.000315908 -3.03065e-06 -9.18259e-06)
(0.000316992 -9.25614e-06 -9.25615e-06)
(0.000319387 -1.61061e-05 -9.39019e-06)
(0.000323574 -2.40605e-05 -9.56716e-06)
(0.000330124 -3.35442e-05 -9.74443e-06)
(0.0003389 -4.44866e-05 -9.84693e-06)
(0.000346136 -5.47997e-05 -9.73077e-06)
(0.000337596 -5.84495e-05 -9.13258e-06)
(0.000281197 -4.55072e-05 -7.53854e-06)
(0.000132897 -8.85021e-06 -3.64607e-06)
(0.000318316 -3.07579e-06 -1.59901e-05)
(0.000319387 -9.39019e-06 -1.61062e-05)
(0.000321756 -1.63262e-05 -1.63262e-05)
(0.000325902 -2.43572e-05 -1.66244e-05)
(0.0003324 -3.38929e-05 -1.69358e-05)
(0.000341123 -4.48401e-05 -1.71321e-05)
(0.000348328 -5.50979e-05 -1.69706e-05)
(0.000339788 -5.86695e-05 -1.5975e-05)
(0.000283268 -4.56198e-05 -1.31418e-05)
(0.000134065 -8.85533e-06 -6.45986e-06)
(0.000322523 -3.13474e-06 -2.39071e-05)
(0.000323574 -9.56717e-06 -2.40606e-05)
(0.000325902 -1.66244e-05 -2.43573e-05)
(0.000329984 -2.47754e-05 -2.47755e-05)
(0.000336396 -3.44108e-05 -2.52417e-05)
(0.000345027 -4.54072e-05 -2.55823e-05)
(0.000352165 -5.5635e-05 -2.54325e-05)
(0.000343571 -5.91002e-05 -2.40258e-05)
(0.000286733 -4.58888e-05 -1.97511e-05)
(0.000136022 -8.9064e-06 -9.67681e-06)
(0.000329098 -3.19285e-06 -3.33664e-05)
(0.000330124 -9.74447e-06 -3.35443e-05)
(0.0003324 -1.69357e-05 -3.3893e-05)
(0.000336396 -2.52416e-05 -3.44109e-05)
(0.000342688 -3.50386e-05 -3.50387e-05)
(0.000351187 -4.61717e-05 -3.55784e-05)
(0.000358214 -5.64594e-05 -3.55256e-05)
(0.000349485 -5.98499e-05 -3.37179e-05)
(0.000292048 -4.64095e-05 -2.77254e-05)
(0.000138977 -9.02256e-06 -1.3458e-05)
(0.000337894 -3.22663e-06 -4.43147e-05)
(0.0003389 -9.847e-06 -4.44866e-05)
(0.000341123 -1.7132e-05 -4.48401e-05)
(0.000345027 -2.55822e-05 -4.54071e-05)
(0.000351187 -3.55783e-05 -4.61717e-05)
(0.000359537 -4.69529e-05 -4.69528e-05)
(0.000366443 -5.74672e-05 -4.71186e-05)
(0.000357543 -6.09296e-05 -4.50077e-05)
(0.000299257 -4.72456e-05 -3.70863e-05)
(0.000142971 -9.23509e-06 -1.78044e-05)
(0.000345139 -3.18584e-06 -5.4672e-05)
(0.000346136 -9.73077e-06 -5.47995e-05)
(0.000348329 -1.69706e-05 -5.50976e-05)
(0.000352165 -2.54324e-05 -5.56347e-05)
(0.000358214 -3.55255e-05 -5.64591e-05)
(0.000366443 -4.71187e-05 -5.74669e-05)
(0.000373327 -5.79847e-05 -5.79844e-05)
(0.000364551 -6.17991e-05 -5.58851e-05)
(0.000305968 -4.81219e-05 -4.63595e-05)
(0.000147073 -9.51717e-06 -2.20797e-05)
(0.000336557 -2.9824e-06 -5.83397e-05)
(0.000337596 -9.1325e-06 -5.84492e-05)
(0.000339788 -1.59749e-05 -5.86693e-05)
(0.000343571 -2.40257e-05 -5.91e-05)
(0.000349485 -3.37179e-05 -5.98497e-05)
(0.000357542 -4.50078e-05 -6.09294e-05)
(0.000364551 -5.58854e-05 -6.17989e-05)
(0.000357043 -6.02941e-05 -6.02939e-05)
(0.000301759 -4.76482e-05 -5.0866e-05)
(0.00014721 -9.71699e-06 -2.44252e-05)
(0.000280084 -2.47366e-06 -4.55001e-05)
(0.000281197 -7.53845e-06 -4.55072e-05)
(0.000283268 -1.31418e-05 -4.56198e-05)
(0.000286732 -1.9751e-05 -4.58887e-05)
(0.000292048 -2.77254e-05 -4.64095e-05)
(0.000299257 -3.70864e-05 -4.72456e-05)
(0.000305967 -4.63597e-05 -4.81219e-05)
(0.000301759 -5.08662e-05 -4.76482e-05)
(0.000259539 -4.15412e-05 -4.15411e-05)
(0.000132271 -9.18778e-06 -2.09633e-05)
(0.000132324 -1.16275e-06 -8.90035e-06)
(0.000132896 -3.64604e-06 -8.85023e-06)
(0.000134065 -6.45982e-06 -8.85536e-06)
(0.000136022 -9.67677e-06 -8.90643e-06)
(0.000138977 -1.34579e-05 -9.0226e-06)
(0.000142971 -1.78044e-05 -9.23514e-06)
(0.000147073 -2.20798e-05 -9.51719e-06)
(0.00014721 -2.44253e-05 -9.71698e-06)
(0.000132271 -2.09634e-05 -9.18778e-06)
(7.69729e-05 -4.4244e-06 -4.4244e-06)
(0.000328181 -3.49212e-06 -3.49212e-06)
(0.00032973 -1.06274e-05 -3.52356e-06)
(0.000333058 -1.83003e-05 -3.5792e-06)
(0.000338551 -2.68182e-05 -3.65003e-06)
(0.00034627 -3.62069e-05 -3.71465e-06)
(0.000354505 -4.5595e-05 -3.73797e-06)
(0.000356318 -5.18774e-05 -3.65722e-06)
(0.000334426 -4.89668e-05 -3.35209e-06)
(0.000260983 -3.18396e-05 -2.63566e-06)
(0.000112643 -4.69225e-06 -1.1831e-06)
(0.00032973 -3.52356e-06 -1.06274e-05)
(0.000331271 -1.07183e-05 -1.07183e-05)
(0.000334582 -1.84465e-05 -1.08849e-05)
(0.000340049 -2.7013e-05 -1.11001e-05)
(0.000347738 -3.64347e-05 -1.13025e-05)
(0.000355951 -4.58281e-05 -1.13841e-05)
(0.000357754 -5.20755e-05 -1.11515e-05)
(0.000335837 -4.91183e-05 -1.02445e-05)
(0.000262252 -3.19172e-05 -8.0501e-06)
(0.000113223 -4.68886e-06 -3.61942e-06)
(0.000333058 -3.5792e-06 -1.83004e-05)
(0.000334582 -1.08849e-05 -1.84466e-05)
(0.000337857 -1.87234e-05 -1.87235e-05)
(0.00034327 -2.73928e-05 -1.90926e-05)
(0.000350895 -3.68933e-05 -1.94604e-05)
(0.000359052 -4.6319e-05 -1.96426e-05)
(0.000360819 -5.25318e-05 -1.9295e-05)
(0.000338829 -4.94801e-05 -1.77742e-05)
(0.00026487 -3.21262e-05 -1.39494e-05)
(0.000114542 -4.71196e-06 -6.25644e-06)
(0.000338551 -3.65004e-06 -2.68182e-05)
(0.000340049 -1.11001e-05 -2.70131e-05)
(0.00034327 -1.90925e-05 -2.73929e-05)
(0.000348603 -2.79226e-05 -2.79227e-05)
(0.000356132 -3.75716e-05 -2.84929e-05)
(0.000364199 -4.7099e-05 -2.88464e-05)
(0.000365893 -5.33211e-05 -2.84528e-05)
(0.000343743 -5.01505e-05 -2.62904e-05)
(0.0002691 -3.25414e-05 -2.06019e-05)
(0.000116675 -4.77756e-06 -9.16732e-06)
(0.00034627 -3.71467e-06 -3.62069e-05)
(0.000347738 -1.13025e-05 -3.64347e-05)
(0.000350895 -1.94604e-05 -3.68933e-05)
(0.000356132 -2.84929e-05 -3.75716e-05)
(0.000363544 -3.83715e-05 -3.83715e-05)
(0.000371502 -4.81186e-05 -3.89828e-05)
(0.000373096 -5.44689e-05 -3.86568e-05)
(0.000350675 -5.12182e-05 -3.58724e-05)
(0.000274983 -3.32474e-05 -2.80803e-05)
(0.000119609 -4.90559e-06 -1.23664e-05)
(0.000354505 -3.738e-06 -4.5595e-05)
(0.000355951 -1.13841e-05 -4.5828e-05)
(0.000359052 -1.96425e-05 -4.63189e-05)
(0.000364199 -2.88464e-05 -4.70989e-05)
(0.000371502 -3.89828e-05 -4.81185e-05)
(0.000379371 -4.90604e-05 -4.90602e-05)
(0.00038091 -5.57228e-05 -4.89657e-05)
(0.000358268 -5.25556e-05 -4.57206e-05)
(0.000281482 -3.42239e-05 -3.58221e-05)
(0.000122917 -5.1149e-06 -1.56343e-05)
(0.000356318 -3.65723e-06 -5.18773e-05)
(0.000357754 -1.11515e-05 -5.20753e-05)
(0.000360819 -1.92949e-05 -5.25316e-05)
(0.000365893 -2.84527e-05 -5.33209e-05)
(0.000373096 -3.86568e-05 -5.44686e-05)
(0.00038091 -4.89658e-05 -5.57225e-05)
(0.000382605 -5.60281e-05 -5.60278e-05)
(0.000360443 -5.32661e-05 -5.27861e-05)
(0.000284127 -3.49897e-05 -4.16016e-05)
(0.000124925 -5.36394e-06 -1.81283e-05)
(0.000334426 -3.35207e-06 -4.89667e-05)
(0.000335837 -1.02445e-05 -4.91181e-05)
(0.000338829 -1.77741e-05 -4.94799e-05)
(0.000343743 -2.62903e-05 -5.01503e-05)
(0.000350675 -3.58723e-05 -5.1218e-05)
(0.000358268 -4.57208e-05 -5.25554e-05)
(0.000360443 -5.27863e-05 -5.32659e-05)
(0.000340874 -5.0833e-05 -5.08329e-05)
(0.000270833 -3.40182e-05 -4.07201e-05)
(0.000121194 -5.4719e-06 -1.80751e-05)
(0.000260983 -2.63564e-06 -3.18395e-05)
(0.000262252 -8.05005e-06 -3.19172e-05)
(0.00026487 -1.39493e-05 -3.21262e-05)
(0.0002691 -2.06018e-05 -3.25413e-05)
(0.000274983 -2.80802e-05 -3.32473e-05)
(0.000281482 -3.58221e-05 -3.42238e-05)
(0.000284127 -4.16018e-05 -3.49897e-05)
(0.000270833 -4.07202e-05 -3.40182e-05)
(0.000219305 -2.82695e-05 -2.82694e-05)
(0.000102949 -5.06139e-06 -1.34029e-05)
(0.000112643 -1.18309e-06 -4.69224e-06)
(0.000113223 -3.6194e-06 -4.68884e-06)
(0.000114542 -6.25641e-06 -4.71194e-06)
(0.000116675 -9.1673e-06 -4.77755e-06)
(0.000119609 -1.23664e-05 -4.90556e-06)
(0.000122917 -1.56343e-05 -5.11489e-06)
(0.000124925 -1.81284e-05 -5.36392e-06)
(0.000121194 -1.80751e-05 -5.47188e-06)
(0.000102949 -1.34029e-05 -5.06138e-06)
(5.53404e-05 -2.48648e-06 -2.48648e-06)
(0.000343061 -3.79234e-06 -3.79234e-06)
(0.000344987 -1.14888e-05 -3.82944e-06)
(0.000349004 -1.95516e-05 -3.89637e-06)
(0.000355222 -2.80563e-05 -3.98013e-06)
(0.000362916 -3.66072e-05 -4.05258e-06)
(0.00036869 -4.37223e-05 -4.06599e-06)
(0.000363388 -4.6072e-05 -3.94016e-06)
(0.000329662 -3.90813e-05 -3.53416e-06)
(0.000246013 -2.18683e-05 -2.65576e-06)
(0.000100886 -2.53036e-06 -1.11588e-06)
(0.000344987 -3.82944e-06 -1.14888e-05)
(0.000346904 -1.15985e-05 -1.15985e-05)
(0.0003509 -1.97319e-05 -1.18008e-05)
(0.000357091 -2.83014e-05 -1.20577e-05)
(0.000364754 -3.69013e-05 -1.22876e-05)
(0.000370505 -4.40373e-05 -1.23442e-05)
(0.000365181 -4.63627e-05 -1.19759e-05)
(0.000331374 -3.93076e-05 -1.07542e-05)
(0.000247444 -2.20057e-05 -8.07198e-06)
(0.000101548 -2.56281e-06 -3.36249e-06)
(0.000349004 -3.89638e-06 -1.95516e-05)
(0.0003509 -1.18008e-05 -1.97319e-05)
(0.000354856 -2.0073e-05 -2.00731e-05)
(0.000360991 -2.87787e-05 -2.0521e-05)
(0.000368595 -3.74934e-05 -2.0948e-05)
(0.000374295 -4.46943e-05 -2.11021e-05)
(0.000368914 -4.69998e-05 -2.05297e-05)
(0.000334921 -3.98192e-05 -1.84668e-05)
(0.000250361 -2.22952e-05 -1.3832e-05)
(0.000102911 -2.6044e-06 -5.70516e-06)
(0.000355223 -3.98014e-06 -2.80563e-05)
(0.000357091 -1.20577e-05 -2.83014e-05)
(0.000360991 -2.0521e-05 -2.87787e-05)
(0.000367052 -2.94348e-05 -2.94348e-05)
(0.000374576 -3.83544e-05 -3.01126e-05)
(0.000380204 -4.57103e-05 -3.04527e-05)
(0.000374718 -4.80477e-05 -2.97539e-05)
(0.000340387 -4.07033e-05 -2.68252e-05)
(0.000254785 -2.28122e-05 -2.00423e-05)
(0.000104958 -2.6801e-06 -8.19218e-06)
(0.000362916 -4.05259e-06 -3.66072e-05)
(0.000364754 -1.22876e-05 -3.69013e-05)
(0.000368595 -2.09479e-05 -3.74934e-05)
(0.000374575 -3.01126e-05 -3.83544e-05)
(0.000382018 -3.93275e-05 -3.93274e-05)
(0.000387577 -4.69692e-05 -3.9961e-05)
(0.000381968 -4.94625e-05 -3.9269e-05)
(0.000347181 -4.19835e-05 -3.55297e-05)
(0.000260218 -2.36037e-05 -2.64945e-05)
(0.00010746 -2.81086e-06 -1.07361e-05)
(0.00036869 -4.066e-06 -4.37223e-05)
(0.000370505 -1.23441e-05 -4.40373e-05)
(0.000374295 -2.11021e-05 -4.46943e-05)
(0.000380204 -3.04527e-05 -4.57102e-05)
(0.000387577 -3.9961e-05 -4.69691e-05)
(0.000393105 -4.7977e-05 -4.79769e-05)
(0.000387481 -5.07974e-05 -4.74841e-05)
(0.000352472 -4.33585e-05 -4.32026e-05)
(0.000264582 -2.45524e-05 -3.22339e-05)
(0.000109619 -3.0034e-06 -1.30073e-05)
(0.000363389 -3.94017e-06 -4.6072e-05)
(0.000365181 -1.19759e-05 -4.63626e-05)
(0.000368914 -2.05296e-05 -4.69997e-05)
(0.000374718 -2.97539e-05 -4.80475e-05)
(0.000381968 -3.92691e-05 -4.94623e-05)
(0.000387481 -4.74842e-05 -5.07972e-05)
(0.000382222 -5.07007e-05 -5.07005e-05)
(0.000348276 -4.37037e-05 -4.65269e-05)
(0.000262246 -2.50795e-05 -3.49324e-05)
(0.00010943 -3.20917e-06 -1.41967e-05)
(0.000329662 -3.53416e-06 -3.90812e-05)
(0.000331374 -1.07542e-05 -3.93075e-05)
(0.000334921 -1.84667e-05 -3.98191e-05)
(0.000340387 -2.68252e-05 -4.07032e-05)
(0.000347181 -3.55298e-05 -4.19834e-05)
(0.000352472 -4.32026e-05 -4.33584e-05)
(0.000348276 -4.65271e-05 -4.37036e-05)
(0.000318595 -4.06411e-05 -4.0641e-05)
(0.000241889 -2.38592e-05 -3.10562e-05)
(0.0001029 -3.27247e-06 -1.30092e-05)
(0.000246013 -2.65576e-06 -2.18682e-05)
(0.000247444 -8.07195e-06 -2.20057e-05)
(0.000250361 -1.3832e-05 -2.22951e-05)
(0.000254785 -2.00423e-05 -2.28122e-05)
(0.000260218 -2.64945e-05 -2.36037e-05)
(0.000264582 -3.2234e-05 -2.45523e-05)
(0.000262246 -3.49325e-05 -2.50794e-05)
(0.000241889 -3.10562e-05 -2.38592e-05)
(0.000187349 -1.90252e-05 -1.90252e-05)
(8.36947e-05 -2.97791e-06 -8.64319e-06)
(0.000100886 -1.11588e-06 -2.53036e-06)
(0.000101548 -3.36249e-06 -2.56279e-06)
(0.000102911 -5.70515e-06 -2.60438e-06)
(0.000104958 -8.19217e-06 -2.68009e-06)
(0.00010746 -1.07361e-05 -2.81084e-06)
(0.000109619 -1.30073e-05 -3.00339e-06)
(0.00010943 -1.41968e-05 -3.20917e-06)
(0.0001029 -1.30092e-05 -3.27247e-06)
(8.36947e-05 -8.64319e-06 -2.97791e-06)
(4.25865e-05 -1.47357e-06 -1.47358e-06)
(0.000358751 -3.93069e-06 -3.93069e-06)
(0.000360937 -1.18495e-05 -3.97439e-06)
(0.000365341 -1.99167e-05 -4.05395e-06)
(0.000371664 -2.79679e-05 -4.15163e-06)
(0.000378276 -3.52662e-05 -4.23145e-06)
(0.000380353 -4.00431e-05 -4.23172e-06)
(0.000367653 -3.93633e-05 -4.05371e-06)
(0.000324375 -3.05023e-05 -3.54545e-06)
(0.000234757 -1.51307e-05 -2.54079e-06)
(9.3439e-05 -1.39235e-06 -9.86565e-07)
(0.000360937 -3.9744e-06 -1.18495e-05)
(0.000363114 -1.19807e-05 -1.19807e-05)
(0.000367499 -2.01358e-05 -1.22225e-05)
(0.000373798 -2.82706e-05 -1.2524e-05)
(0.000380387 -3.5636e-05 -1.2779e-05)
(0.00038244 -4.04468e-05 -1.27982e-05)
(0.000369693 -3.97429e-05 -1.22734e-05)
(0.000326263 -3.07927e-05 -1.07426e-05)
(0.000236245 -1.52994e-05 -7.69359e-06)
(9.40991e-05 -1.43045e-06 -2.96179e-06)
(0.000365341 -4.05396e-06 -1.99167e-05)
(0.000367499 -1.22225e-05 -2.01358e-05)
(0.000371849 -2.05479e-05 -2.05479e-05)
(0.000378104 -2.88549e-05 -2.10786e-05)
(0.00038465 -3.63717e-05 -2.15575e-05)
(0.000386656 -4.12731e-05 -2.16574e-05)
(0.000373799 -4.05473e-05 -2.08251e-05)
(0.000330032 -3.14266e-05 -1.82475e-05)
(0.000239164 -1.5643e-05 -1.30423e-05)
(9.53711e-05 -1.4798e-06 -4.97447e-06)
(0.000371664 -4.15165e-06 -2.79679e-05)
(0.000373798 -1.2524e-05 -2.82706e-05)
(0.000378105 -2.10786e-05 -2.88549e-05)
(0.000384308 -2.96408e-05 -2.96408e-05)
(0.000390804 -3.74123e-05 -3.04092e-05)
(0.000392746 -4.25038e-05 -3.06878e-05)
(0.000379711 -4.18044e-05 -2.96324e-05)
(0.000335402 -3.2457e-05 -2.60063e-05)
(0.00024325 -1.62159e-05 -1.85369e-05)
(9.71298e-05 -1.56159e-06 -7.0198e-06)
(0.000378276 -4.23146e-06 -3.52662e-05)
(0.000380387 -1.27789e-05 -3.5636e-05)
(0.00038465 -2.15575e-05 -3.63716e-05)
(0.000390804 -3.04092e-05 -3.74123e-05)
(0.000397258 -3.852e-05 -3.852e-05)
(0.000399146 -4.39256e-05 -3.90916e-05)
(0.000385924 -4.33658e-05 -3.79625e-05)
(0.000341008 -3.38163e-05 -3.34115e-05)
(0.000247463 -1.70151e-05 -2.377e-05)
(9.89559e-05 -1.69043e-06 -8.95882e-06)
(0.000380353 -4.23173e-06 -4.00431e-05)
(0.00038244 -1.27982e-05 -4.04467e-05)
(0.000386656 -2.16574e-05 -4.1273e-05)
(0.000392746 -3.06878e-05 -4.25038e-05)
(0.000399146 -3.90916e-05 -4.39255e-05)
(0.000401025 -4.4863e-05 -4.48629e-05)
(0.000387823 -4.45986e-05 -4.38831e-05)
(0.000342844 -3.50535e-05 -3.88152e-05)
(0.000248994 -1.78482e-05 -2.76495e-05)
(9.98267e-05 -1.86151e-06 -1.0445e-05)
(0.000367653 -4.05372e-06 -3.93632e-05)
(0.000369693 -1.22734e-05 -3.97429e-05)
(0.000373799 -2.0825e-05 -4.05472e-05)
(0.000379711 -2.96324e-05 -4.18043e-05)
(0.000385924 -3.79626e-05 -4.33657e-05)
(0.000387823 -4.38832e-05 -4.45984e-05)
(0.000375289 -4.4012e-05 -4.40119e-05)
(0.000332223 -3.49836e-05 -3.92567e-05)
(0.000241958 -1.81342e-05 -2.81861e-05)
(9.77185e-05 -2.02203e-06 -1.08211e-05)
(0.000324375 -3.54546e-06 -3.05023e-05)
(0.000326263 -1.07426e-05 -3.07927e-05)
(0.000330032 -1.82475e-05 -3.14266e-05)
(0.000335402 -2.60062e-05 -3.24569e-05)
(0.000341008 -3.34115e-05 -3.38162e-05)
(0.000342844 -3.88153e-05 -3.50533e-05)
(0.000332223 -3.92568e-05 -3.49835e-05)
(0.000295219 -3.16447e-05 -3.16446e-05)
(0.000216854 -1.68504e-05 -2.31887e-05)
(8.93441e-05 -2.04586e-06 -9.26956e-06)
(0.000234757 -2.5408e-06 -1.51307e-05)
(0.000236245 -7.69357e-06 -1.52994e-05)
(0.000239164 -1.30422e-05 -1.5643e-05)
(0.00024325 -1.85369e-05 -1.62158e-05)
(0.000247463 -2.377e-05 -1.7015e-05)
(0.000248995 -2.76495e-05 -1.78481e-05)
(0.000241958 -2.81862e-05 -1.81341e-05)
(0.000216854 -2.31888e-05 -1.68504e-05)
(0.000162564 -1.2955e-05 -1.2955e-05)
(7.02565e-05 -1.81402e-06 -5.66857e-06)
(9.3439e-05 -9.86567e-07 -1.39235e-06)
(9.40991e-05 -2.96179e-06 -1.43044e-06)
(9.53711e-05 -4.97446e-06 -1.4798e-06)
(9.71298e-05 -7.0198e-06 -1.56159e-06)
(9.89559e-05 -8.95881e-06 -1.69043e-06)
(9.98267e-05 -1.0445e-05 -1.86152e-06)
(9.77185e-05 -1.08211e-05 -2.02204e-06)
(8.93441e-05 -9.26956e-06 -2.04587e-06)
(7.02565e-05 -5.66857e-06 -1.81403e-06)
(3.43263e-05 -8.78535e-07 -8.78539e-07)
(0.000374648 -3.93903e-06 -3.93903e-06)
(0.00037696 -1.18137e-05 -3.98989e-06)
(0.00038143 -1.96055e-05 -4.08248e-06)
(0.000387277 -2.69404e-05 -4.1934e-06)
(0.000392013 -3.28651e-05 -4.27743e-06)
(0.000389803 -3.5614e-05 -4.25878e-06)
(0.000370233 -3.29404e-05 -4.02413e-06)
(0.000319643 -2.36863e-05 -3.42403e-06)
(0.000226614 -1.06928e-05 -2.34092e-06)
(8.87207e-05 -8.00979e-07 -8.41946e-07)
(0.00037696 -3.9899e-06 -1.18137e-05)
(0.000379266 -1.19678e-05 -1.19679e-05)
(0.000383723 -1.98653e-05 -1.22501e-05)
(0.000389556 -2.73021e-05 -1.25936e-05)
(0.000394276 -3.33099e-05 -1.28632e-05)
(0.000392034 -3.61e-05 -1.28268e-05)
(0.000372376 -3.33957e-05 -1.21324e-05)
(0.000321548 -2.4027e-05 -1.03284e-05)
(0.000228023 -1.08804e-05 -7.05972e-06)
(8.93052e-05 -8.37602e-07 -2.52047e-06)
(0.00038143 -4.08248e-06 -1.96055e-05)
(0.000383723 -1.22501e-05 -1.98654e-05)
(0.000388159 -2.03489e-05 -2.03489e-05)
(0.000393969 -2.79911e-05 -2.09555e-05)
(0.000398661 -3.41793e-05 -2.14649e-05)
(0.000396357 -3.70728e-05 -2.14752e-05)
(0.000376506 -3.43308e-05 -2.0363e-05)
(0.000325184 -2.47456e-05 -1.73466e-05)
(0.000230669 -1.12569e-05 -1.18375e-05)
(9.03814e-05 -8.90216e-07 -4.19586e-06)
(0.000387277 -4.19342e-06 -2.69404e-05)
(0.000389556 -1.25936e-05 -2.73021e-05)
(0.000393969 -2.09555e-05 -2.79911e-05)