m,d_star_dFS,theta_dFS,H,Rex_Cf,lambda,Tau,F_theta
-0.0904,3.45079,0.86796,3.97577,0.00433,-0.0681,0.00376,0.82145
-0.08,2.68541,0.83128,3.23047,0.09964,-0.05528,0.08283,0.74395
-0.05,2.12304,0.75256,2.82108,0.21247,-0.02832,0.15989,0.59283
0.0,1.72351,0.66485,2.59233,0.33138,0.0,0.22032,0.44064
0.3,1.02025,0.44203,2.30809,0.72548,0.05862,0.32069,0.13631
0.6,0.79799,0.35472,2.24962,0.97514,0.0755,0.3459,0.05015
1.0,0.64822,0.29212,2.21902,1.23239,0.08533,0.36,-4e-05
2.0,0.47682,0.21739,2.19343,1.71443,0.09451,0.37269,-0.04728
