/*--------------------------------*- C++ -*----------------------------------*\
| =========                 |                                                 |
| \\      /  F ield         | OpenFOAM: The Open Source CFD Toolbox           |
|  \\    /   O peration     | Version:  2212                                  |
|   \\  /    A nd           | Website:  www.openfoam.com                      |
|    \\/     M anipulation  |                                                 |
\*---------------------------------------------------------------------------*/
FoamFile
{
    version     2.0;
    format      ascii;
    arch        "LSB;label=32;scalar=64";
    class       volScalarField;
    location    "113";
    object      p;
}
// * * * * * * * * * * * * * * * * * * * * * * * * * * * * * * * * * * * * * //

dimensions      [0 2 -2 0 0 0 0];

internalField   nonuniform List<scalar> 
10000
(
3.37522e-07
3.38088e-07
3.39235e-07
3.41105e-07
3.43935e-07
3.48235e-07
3.54874e-07
3.65229e-07
3.89644e-07
4.52558e-07
3.38088e-07
3.38665e-07
3.39822e-07
3.41705e-07
3.44555e-07
3.48868e-07
3.55442e-07
3.65816e-07
3.90857e-07
4.51803e-07
3.39235e-07
3.39822e-07
3.40997e-07
3.42908e-07
3.45794e-07
3.50149e-07
3.56748e-07
3.67145e-07
3.92296e-07
4.52995e-07
3.41105e-07
3.41705e-07
3.42908e-07
3.44863e-07
3.47806e-07
3.52228e-07
3.58894e-07
3.69342e-07
3.94522e-07
4.55218e-07
3.43935e-07
3.44555e-07
3.45794e-07
3.47806e-07
3.50828e-07
3.55348e-07
3.62121e-07
3.72662e-07
3.97887e-07
4.58631e-07
3.48235e-07
3.48868e-07
3.50149e-07
3.52228e-07
3.55348e-07
3.59997e-07
3.66927e-07
3.77617e-07
4.02927e-07
4.63775e-07
3.54874e-07
3.55442e-07
3.56748e-07
3.58894e-07
3.62121e-07
3.66928e-07
3.74066e-07
3.84983e-07
4.1045e-07
4.71501e-07
3.65229e-07
3.65816e-07
3.67145e-07
3.69342e-07
3.72662e-07
3.77617e-07
3.84983e-07
3.96213e-07
4.22015e-07
4.83454e-07
3.89644e-07
3.90857e-07
3.92296e-07
3.94522e-07
3.97887e-07
4.02927e-07
4.10449e-07
4.22015e-07
4.48027e-07
5.08404e-07
4.52558e-07
4.51803e-07
4.52995e-07
4.55218e-07
4.58631e-07
4.63775e-07
4.71501e-07
4.83454e-07
5.08404e-07
5.6276e-07
3.3722e-07
3.3775e-07
3.38855e-07
3.40638e-07
3.43256e-07
3.47022e-07
3.52382e-07
3.58774e-07
3.67073e-07
3.86681e-07
3.3775e-07
3.38286e-07
3.39398e-07
3.41191e-07
3.43824e-07
3.47616e-07
3.52961e-07
3.59344e-07
3.68253e-07
3.87856e-07
3.38855e-07
3.39398e-07
3.40528e-07
3.42349e-07
3.45018e-07
3.48856e-07
3.54236e-07
3.60625e-07
3.69622e-07
3.89254e-07
3.40638e-07
3.41191e-07
3.42349e-07
3.44213e-07
3.46939e-07
3.50843e-07
3.56291e-07
3.62726e-07
3.71733e-07
3.91344e-07
3.43256e-07
3.43824e-07
3.45018e-07
3.46939e-07
3.49742e-07
3.53743e-07
3.59298e-07
3.65822e-07
3.74844e-07
3.94441e-07
3.47022e-07
3.47616e-07
3.48856e-07
3.50844e-07
3.53743e-07
3.57872e-07
3.63583e-07
3.70263e-07
3.79337e-07
3.98932e-07
3.52382e-07
3.52961e-07
3.54236e-07
3.56291e-07
3.59298e-07
3.63583e-07
3.69512e-07
3.76448e-07
3.85676e-07
4.05297e-07
3.58774e-07
3.59344e-07
3.60625e-07
3.62726e-07
3.65822e-07
3.70262e-07
3.76448e-07
3.8381e-07
3.93614e-07
4.13655e-07
3.67073e-07
3.68253e-07
3.69622e-07
3.71733e-07
3.74844e-07
3.79337e-07
3.85676e-07
3.93614e-07
4.04881e-07
4.26234e-07
3.86681e-07
3.87856e-07
3.89254e-07
3.91344e-07
3.94441e-07
3.98932e-07
4.05296e-07
4.13655e-07
4.26234e-07
4.49152e-07
3.35569e-07
3.36024e-07
3.36941e-07
3.38361e-07
3.40309e-07
3.42805e-07
3.45867e-07
3.48713e-07
3.49926e-07
3.53467e-07
3.36024e-07
3.36486e-07
3.37413e-07
3.38848e-07
3.40817e-07
3.43349e-07
3.46436e-07
3.49226e-07
3.50542e-07
3.53982e-07
3.36941e-07
3.37413e-07
3.38359e-07
3.39824e-07
3.41829e-07
3.44404e-07
3.47528e-07
3.5031e-07
3.51613e-07
3.55038e-07
3.38361e-07
3.38848e-07
3.39824e-07
3.41331e-07
3.43393e-07
3.46034e-07
3.49223e-07
3.52047e-07
3.53344e-07
3.56745e-07
3.40309e-07
3.40817e-07
3.41829e-07
3.43393e-07
3.45532e-07
3.48269e-07
3.51565e-07
3.54482e-07
3.55802e-07
3.59191e-07
3.42805e-07
3.43349e-07
3.44404e-07
3.46034e-07
3.48269e-07
3.51134e-07
3.54593e-07
3.57689e-07
3.59116e-07
3.6253e-07
3.45867e-07
3.46436e-07
3.47528e-07
3.49223e-07
3.51565e-07
3.54593e-07
3.58286e-07
3.61691e-07
3.63398e-07
3.66926e-07
3.48713e-07
3.49226e-07
3.5031e-07
3.52047e-07
3.54482e-07
3.57689e-07
3.61691e-07
3.65615e-07
3.68076e-07
3.72157e-07
3.49926e-07
3.50542e-07
3.51613e-07
3.53344e-07
3.55802e-07
3.59116e-07
3.63398e-07
3.68076e-07
3.72334e-07
3.7839e-07
3.53467e-07
3.53982e-07
3.55038e-07
3.56745e-07
3.59191e-07
3.6253e-07
3.66926e-07
3.72157e-07
3.7839e-07
3.87952e-07
3.32734e-07
3.33066e-07
3.33714e-07
3.34664e-07
3.3585e-07
3.37145e-07
3.38411e-07
3.3927e-07
3.38752e-07
3.38512e-07
3.33066e-07
3.33407e-07
3.34065e-07
3.3503e-07
3.36233e-07
3.3755e-07
3.38834e-07
3.39654e-07
3.39109e-07
3.38776e-07
3.33714e-07
3.34065e-07
3.34743e-07
3.35736e-07
3.36974e-07
3.38328e-07
3.39649e-07
3.40479e-07
3.39918e-07
3.39565e-07
3.34664e-07
3.3503e-07
3.35736e-07
3.36771e-07
3.38065e-07
3.39485e-07
3.40874e-07
3.41756e-07
3.41205e-07
3.4084e-07
3.3585e-07
3.36233e-07
3.36974e-07
3.38065e-07
3.39438e-07
3.40957e-07
3.42461e-07
3.43454e-07
3.42961e-07
3.42606e-07
3.37145e-07
3.3755e-07
3.38328e-07
3.39485e-07
3.40957e-07
3.42616e-07
3.44302e-07
3.4551e-07
3.45189e-07
3.44902e-07
3.38411e-07
3.38834e-07
3.39649e-07
3.40874e-07
3.42461e-07
3.44302e-07
3.46257e-07
3.47828e-07
3.47878e-07
3.47782e-07
3.3927e-07
3.39654e-07
3.40479e-07
3.41756e-07
3.43454e-07
3.4551e-07
3.47828e-07
3.49952e-07
3.50722e-07
3.51138e-07
3.38752e-07
3.39109e-07
3.39918e-07
3.41205e-07
3.42961e-07
3.45189e-07
3.47878e-07
3.50722e-07
3.52852e-07
3.54753e-07
3.38512e-07
3.38776e-07
3.39565e-07
3.4084e-07
3.42606e-07
3.44902e-07
3.47782e-07
3.51138e-07
3.54753e-07
3.59291e-07
3.29044e-07
3.29247e-07
3.29629e-07
3.30138e-07
3.30673e-07
3.31064e-07
3.31135e-07
3.30711e-07
3.29317e-07
3.27727e-07
3.29247e-07
3.29456e-07
3.29847e-07
3.3037e-07
3.30921e-07
3.31328e-07
3.31419e-07
3.30998e-07
3.2961e-07
3.28023e-07
3.29629e-07
3.29847e-07
3.30256e-07
3.30807e-07
3.31392e-07
3.3184e-07
3.31972e-07
3.31583e-07
3.30203e-07
3.28607e-07
3.30138e-07
3.3037e-07
3.30807e-07
3.314e-07
3.32043e-07
3.32561e-07
3.32769e-07
3.32447e-07
3.31093e-07
3.29486e-07
3.30673e-07
3.30921e-07
3.31392e-07
3.32043e-07
3.32769e-07
3.33393e-07
3.33731e-07
3.33538e-07
3.3226e-07
3.3066e-07
3.31064e-07
3.31328e-07
3.31839e-07
3.3256e-07
3.33393e-07
3.34173e-07
3.34715e-07
3.34761e-07
3.33671e-07
3.32132e-07
3.31135e-07
3.31419e-07
3.31972e-07
3.32769e-07
3.33731e-07
3.34715e-07
3.35558e-07
3.35992e-07
3.35275e-07
3.33923e-07
3.30711e-07
3.30998e-07
3.31583e-07
3.32447e-07
3.33538e-07
3.34761e-07
3.35992e-07
3.36969e-07
3.36884e-07
3.35989e-07
3.29317e-07
3.2961e-07
3.30203e-07
3.31093e-07
3.32261e-07
3.33671e-07
3.35275e-07
3.36884e-07
3.3782e-07
3.38058e-07
3.27727e-07
3.28023e-07
3.28607e-07
3.29486e-07
3.3066e-07
3.32132e-07
3.33923e-07
3.35989e-07
3.38058e-07
3.40196e-07
3.24681e-07
3.24768e-07
3.24914e-07
3.25049e-07
3.2506e-07
3.24788e-07
3.24095e-07
3.22958e-07
3.21241e-07
3.19417e-07
3.24768e-07
3.24861e-07
3.25015e-07
3.25164e-07
3.25192e-07
3.24941e-07
3.24272e-07
3.23149e-07
3.21435e-07
3.19627e-07
3.24914e-07
3.25015e-07
3.25188e-07
3.25365e-07
3.25431e-07
3.25223e-07
3.24601e-07
3.23518e-07
3.21816e-07
3.19993e-07
3.25049e-07
3.25164e-07
3.25365e-07
3.25586e-07
3.25712e-07
3.2558e-07
3.25043e-07
3.24035e-07
3.22366e-07
3.20528e-07
3.2506e-07
3.25192e-07
3.25431e-07
3.25712e-07
3.25926e-07
3.2591e-07
3.25512e-07
3.24645e-07
3.23059e-07
3.21219e-07
3.24788e-07
3.24941e-07
3.25223e-07
3.2558e-07
3.2591e-07
3.2606e-07
3.25881e-07
3.25258e-07
3.23853e-07
3.22065e-07
3.24095e-07
3.24272e-07
3.24601e-07
3.25043e-07
3.25512e-07
3.25881e-07
3.26013e-07
3.25768e-07
3.24703e-07
3.23089e-07
3.22958e-07
3.23149e-07
3.23518e-07
3.24035e-07
3.24646e-07
3.25258e-07
3.25768e-07
3.26019e-07
3.25489e-07
3.24284e-07
3.21241e-07
3.21436e-07
3.21816e-07
3.22366e-07
3.23059e-07
3.23853e-07
3.24703e-07
3.25489e-07
3.25749e-07
3.2543e-07
3.19417e-07
3.19627e-07
3.19993e-07
3.20528e-07
3.21219e-07
3.22065e-07
3.23089e-07
3.24284e-07
3.2543e-07
3.26473e-07
3.19806e-07
3.19797e-07
3.19748e-07
3.19586e-07
3.19212e-07
3.18508e-07
3.17417e-07
3.16045e-07
3.14425e-07
3.12824e-07
3.19797e-07
3.19792e-07
3.19752e-07
3.19605e-07
3.19249e-07
3.18566e-07
3.175e-07
3.16144e-07
3.14519e-07
3.12929e-07
3.19748e-07
3.19752e-07
3.19731e-07
3.19613e-07
3.19296e-07
3.1866e-07
3.17644e-07
3.16329e-07
3.14716e-07
3.1311e-07
3.19586e-07
3.19605e-07
3.19613e-07
3.1954e-07
3.19286e-07
3.1873e-07
3.17804e-07
3.1657e-07
3.14992e-07
3.13368e-07
3.19212e-07
3.19249e-07
3.19296e-07
3.19286e-07
3.19124e-07
3.18689e-07
3.17907e-07
3.16816e-07
3.1532e-07
3.13694e-07
3.18508e-07
3.18566e-07
3.1866e-07
3.1873e-07
3.18689e-07
3.18425e-07
3.1786e-07
3.17002e-07
3.15673e-07
3.14098e-07
3.17417e-07
3.175e-07
3.17644e-07
3.17804e-07
3.17907e-07
3.1786e-07
3.17592e-07
3.17072e-07
3.16035e-07
3.14619e-07
3.16045e-07
3.16144e-07
3.16329e-07
3.1657e-07
3.16816e-07
3.17002e-07
3.17072e-07
3.16967e-07
3.16353e-07
3.15277e-07
3.14425e-07
3.14519e-07
3.14716e-07
3.14992e-07
3.1532e-07
3.15673e-07
3.16035e-07
3.16353e-07
3.16323e-07
3.15905e-07
3.12824e-07
3.12929e-07
3.1311e-07
3.13368e-07
3.13694e-07
3.14098e-07
3.14619e-07
3.15277e-07
3.15905e-07
3.16431e-07
3.14596e-07
3.14511e-07
3.14315e-07
3.13944e-07
3.13322e-07
3.12385e-07
3.11153e-07
3.098e-07
3.08407e-07
3.071e-07
3.14511e-07
3.14431e-07
3.14244e-07
3.13887e-07
3.13284e-07
3.12369e-07
3.11163e-07
3.09827e-07
3.0843e-07
3.07131e-07
3.14315e-07
3.14244e-07
3.14076e-07
3.13749e-07
3.13185e-07
3.12319e-07
3.11164e-07
3.09872e-07
3.08487e-07
3.07172e-07
3.13944e-07
3.13887e-07
3.13749e-07
3.13467e-07
3.12968e-07
3.12183e-07
3.11118e-07
3.09907e-07
3.08558e-07
3.07225e-07
3.13322e-07
3.13284e-07
3.13185e-07
3.12968e-07
3.12561e-07
3.11896e-07
3.10973e-07
3.09899e-07
3.08627e-07
3.07295e-07
3.12385e-07
3.12369e-07
3.12319e-07
3.12183e-07
3.11896e-07
3.11398e-07
3.10679e-07
3.09813e-07
3.0869e-07
3.07407e-07
3.11153e-07
3.11163e-07
3.11164e-07
3.11118e-07
3.10973e-07
3.10679e-07
3.10225e-07
3.09645e-07
3.0876e-07
3.07618e-07
3.098e-07
3.09827e-07
3.09872e-07
3.09907e-07
3.09899e-07
3.09813e-07
3.09645e-07
3.09393e-07
3.0883e-07
3.07959e-07
3.08407e-07
3.0843e-07
3.08487e-07
3.08558e-07
3.08627e-07
3.0869e-07
3.0876e-07
3.0883e-07
3.08692e-07
3.08302e-07
3.071e-07
3.07131e-07
3.07172e-07
3.07225e-07
3.07295e-07
3.07407e-07
3.07618e-07
3.07959e-07
3.08302e-07
3.08571e-07
3.09203e-07
3.09067e-07
3.08771e-07
3.08268e-07
3.07513e-07
3.06488e-07
3.05264e-07
3.04032e-07
3.02871e-07
3.01829e-07
3.09067e-07
3.08934e-07
3.08647e-07
3.08159e-07
3.07422e-07
3.06419e-07
3.05221e-07
3.04008e-07
3.02844e-07
3.01806e-07
3.08771e-07
3.08647e-07
3.0838e-07
3.07921e-07
3.07224e-07
3.06269e-07
3.05121e-07
3.03951e-07
3.02801e-07
3.01746e-07
3.08268e-07
3.08159e-07
3.07921e-07
3.07508e-07
3.06874e-07
3.05997e-07
3.04937e-07
3.03844e-07
3.02728e-07
3.01658e-07
3.07513e-07
3.07422e-07
3.07224e-07
3.06874e-07
3.06329e-07
3.05568e-07
3.04639e-07
3.03671e-07
3.02626e-07
3.0156e-07
3.06488e-07
3.06419e-07
3.06269e-07
3.05997e-07
3.05568e-07
3.04961e-07
3.04216e-07
3.03429e-07
3.02511e-07
3.01493e-07
3.05264e-07
3.05221e-07
3.05121e-07
3.04937e-07
3.04639e-07
3.04216e-07
3.03698e-07
3.03145e-07
3.0242e-07
3.01524e-07
3.04032e-07
3.04008e-07
3.03951e-07
3.03844e-07
3.03671e-07
3.03429e-07
3.03145e-07
3.02846e-07
3.02366e-07
3.01683e-07
3.02871e-07
3.02844e-07
3.02801e-07
3.02728e-07
3.02626e-07
3.02511e-07
3.0242e-07
3.02366e-07
3.022e-07
3.01872e-07
3.01829e-07
3.01806e-07
3.01746e-07
3.01658e-07
3.0156e-07
3.01493e-07
3.01524e-07
3.01683e-07
3.01872e-07
3.02014e-07
3.0375e-07
3.03582e-07
3.03228e-07
3.02658e-07
3.01853e-07
3.00832e-07
2.99696e-07
2.98621e-07
2.97668e-07
2.96841e-07
3.03582e-07
3.03417e-07
3.03072e-07
3.02515e-07
3.01728e-07
3.00729e-07
2.99617e-07
2.9856e-07
2.97606e-07
2.96779e-07
3.03228e-07
3.03072e-07
3.02745e-07
3.02217e-07
3.01468e-07
3.00515e-07
2.99451e-07
2.98435e-07
2.97493e-07
2.96652e-07
3.02658e-07
3.02515e-07
3.02217e-07
3.01733e-07
3.01044e-07
3.00164e-07
2.99181e-07
2.98236e-07
2.97327e-07
2.96473e-07
3.01853e-07
3.01728e-07
3.01468e-07
3.01044e-07
3.00438e-07
2.99665e-07
2.988e-07
2.97967e-07
2.97122e-07
2.96274e-07
3.00832e-07
3.00729e-07
3.00515e-07
3.00164e-07
2.99665e-07
2.9903e-07
2.98326e-07
2.97647e-07
2.96911e-07
2.96109e-07
2.99696e-07
2.99617e-07
2.99451e-07
2.99181e-07
2.988e-07
2.98326e-07
2.97813e-07
2.97323e-07
2.96742e-07
2.96042e-07
2.98621e-07
2.9856e-07
2.98435e-07
2.98236e-07
2.97967e-07
2.97647e-07
2.97323e-07
2.97029e-07
2.96635e-07
2.96104e-07
2.97668e-07
2.97606e-07
2.97493e-07
2.97327e-07
2.97122e-07
2.96911e-07
2.96742e-07
2.96635e-07
2.96474e-07
2.96209e-07
2.96841e-07
2.96779e-07
2.96652e-07
2.96473e-07
2.96274e-07
2.96109e-07
2.96042e-07
2.96104e-07
2.96209e-07
2.96287e-07
2.98328e-07
2.98144e-07
2.97764e-07
2.97174e-07
2.96376e-07
2.95417e-07
2.94404e-07
2.9349e-07
2.92712e-07
2.9205e-07
2.98144e-07
2.97962e-07
2.97591e-07
2.97014e-07
2.96234e-07
2.95294e-07
2.94303e-07
2.93405e-07
2.92627e-07
2.91964e-07
2.97764e-07
2.97591e-07
2.97237e-07
2.96686e-07
2.95941e-07
2.95044e-07
2.94097e-07
2.93238e-07
2.92472e-07
2.91797e-07
2.97174e-07
2.97014e-07
2.96686e-07
2.96176e-07
2.95486e-07
2.94656e-07
2.93782e-07
2.92988e-07
2.92252e-07
2.91568e-07
2.96376e-07
2.96234e-07
2.95941e-07
2.95486e-07
2.94872e-07
2.94137e-07
2.9337e-07
2.92673e-07
2.91995e-07
2.91318e-07
2.95417e-07
2.95294e-07
2.95044e-07
2.94656e-07
2.94137e-07
2.93524e-07
2.92895e-07
2.92328e-07
2.91742e-07
2.91107e-07
2.94404e-07
2.94303e-07
2.94097e-07
2.93782e-07
2.9337e-07
2.92895e-07
2.92422e-07
2.92007e-07
2.91545e-07
2.90996e-07
2.9349e-07
2.93406e-07
2.93238e-07
2.92988e-07
2.92673e-07
2.92328e-07
2.92007e-07
2.91741e-07
2.91422e-07
2.91008e-07
2.92712e-07
2.92627e-07
2.92472e-07
2.92252e-07
2.91995e-07
2.91742e-07
2.91545e-07
2.91422e-07
2.9128e-07
2.91069e-07
2.9205e-07
2.91964e-07
2.91797e-07
2.91568e-07
2.91318e-07
2.91107e-07
2.90996e-07
2.91008e-07
2.91069e-07
2.91113e-07
2.93e-07
2.92812e-07
2.9243e-07
2.91853e-07
2.911e-07
2.9023e-07
2.8935e-07
2.88584e-07
2.87948e-07
2.87413e-07
2.92812e-07
2.92627e-07
2.92253e-07
2.91687e-07
2.9095e-07
2.90098e-07
2.89238e-07
2.88487e-07
2.87851e-07
2.87315e-07
2.9243e-07
2.92253e-07
2.91895e-07
2.91353e-07
2.90647e-07
2.89834e-07
2.89014e-07
2.88298e-07
2.87675e-07
2.87128e-07
2.91853e-07
2.91687e-07
2.91353e-07
2.90848e-07
2.90192e-07
2.89439e-07
2.88685e-07
2.88027e-07
2.87432e-07
2.86877e-07
2.911e-07
2.9095e-07
2.90647e-07
2.90192e-07
2.89604e-07
2.88935e-07
2.88274e-07
2.87701e-07
2.87157e-07
2.86611e-07
2.9023e-07
2.90098e-07
2.89834e-07
2.89439e-07
2.88935e-07
2.88372e-07
2.87828e-07
2.87364e-07
2.86897e-07
2.86388e-07
2.8935e-07
2.89238e-07
2.89014e-07
2.88685e-07
2.88274e-07
2.87828e-07
2.87412e-07
2.87068e-07
2.86701e-07
2.86265e-07
2.88584e-07
2.88487e-07
2.88298e-07
2.88027e-07
2.87701e-07
2.87364e-07
2.87068e-07
2.86839e-07
2.86582e-07
2.86255e-07
2.87948e-07
2.87851e-07
2.87675e-07
2.87432e-07
2.87157e-07
2.86897e-07
2.86701e-07
2.86582e-07
2.86461e-07
2.86291e-07
2.87413e-07
2.87315e-07
2.87128e-07
2.86877e-07
2.86611e-07
2.86388e-07
2.86265e-07
2.86255e-07
2.86291e-07
2.86317e-07
2.87807e-07
2.87624e-07
2.87256e-07
2.86713e-07
2.86024e-07
2.85255e-07
2.84503e-07
2.83866e-07
2.83344e-07
2.82906e-07
2.87624e-07
2.87444e-07
2.87083e-07
2.8655e-07
2.85875e-07
2.85122e-07
2.84388e-07
2.83765e-07
2.83244e-07
2.82804e-07
2.87256e-07
2.87083e-07
2.86737e-07
2.86225e-07
2.85578e-07
2.8486e-07
2.84162e-07
2.83571e-07
2.83062e-07
2.82612e-07
2.86713e-07
2.8655e-07
2.86225e-07
2.85745e-07
2.85143e-07
2.84478e-07
2.83839e-07
2.83299e-07
2.82816e-07
2.82362e-07
2.86024e-07
2.85875e-07
2.85578e-07
2.85143e-07
2.84601e-07
2.84009e-07
2.8345e-07
2.82984e-07
2.82546e-07
2.821e-07
2.85255e-07
2.85122e-07
2.8486e-07
2.84478e-07
2.84009e-07
2.83509e-07
2.83049e-07
2.82672e-07
2.82299e-07
2.81886e-07
2.84503e-07
2.84388e-07
2.84162e-07
2.83839e-07
2.8345e-07
2.83049e-07
2.82693e-07
2.82412e-07
2.82118e-07
2.81768e-07
2.83866e-07
2.83765e-07
2.83571e-07
2.83299e-07
2.82984e-07
2.82672e-07
2.82412e-07
2.8222e-07
2.82012e-07
2.8175e-07
2.83344e-07
2.83244e-07
2.83062e-07
2.82816e-07
2.82546e-07
2.82299e-07
2.82118e-07
2.82012e-07
2.81911e-07
2.81774e-07
2.82906e-07
2.82804e-07
2.82612e-07
2.82362e-07
2.821e-07
2.81886e-07
2.81768e-07
2.8175e-07
2.81774e-07
2.8179e-07
2.8277e-07
2.82599e-07
2.82255e-07
2.81757e-07
2.81141e-07
2.80472e-07
2.79837e-07
2.7931e-07
2.78879e-07
2.78515e-07
2.82599e-07
2.82429e-07
2.82091e-07
2.81602e-07
2.80999e-07
2.80345e-07
2.79725e-07
2.7921e-07
2.7878e-07
2.78414e-07
2.82255e-07
2.82091e-07
2.81766e-07
2.81296e-07
2.80717e-07
2.80094e-07
2.79507e-07
2.79021e-07
2.78603e-07
2.7823e-07
2.81757e-07
2.81602e-07
2.81296e-07
2.80854e-07
2.80315e-07
2.79738e-07
2.79203e-07
2.78762e-07
2.78368e-07
2.77991e-07
2.81141e-07
2.80999e-07
2.80718e-07
2.80315e-07
2.79828e-07
2.79316e-07
2.78849e-07
2.78472e-07
2.78116e-07
2.77749e-07
2.80472e-07
2.80345e-07
2.80094e-07
2.79738e-07
2.79316e-07
2.78882e-07
2.78498e-07
2.78194e-07
2.77893e-07
2.77555e-07
2.79837e-07
2.79725e-07
2.79507e-07
2.79203e-07
2.78849e-07
2.78498e-07
2.78199e-07
2.77972e-07
2.77735e-07
2.77449e-07
2.7931e-07
2.7921e-07
2.79021e-07
2.78762e-07
2.78472e-07
2.78194e-07
2.77972e-07
2.77813e-07
2.77645e-07
2.77432e-07
2.78879e-07
2.7878e-07
2.78603e-07
2.78368e-07
2.78116e-07
2.77893e-07
2.77735e-07
2.77645e-07
2.77561e-07
2.7745e-07
2.78515e-07
2.78414e-07
2.7823e-07
2.77991e-07
2.77749e-07
2.77555e-07
2.77449e-07
2.77432e-07
2.7745e-07
2.7746e-07
2.77899e-07
2.77742e-07
2.77427e-07
2.76979e-07
2.76438e-07
2.75864e-07
2.7533e-07
2.74894e-07
2.74536e-07
2.7423e-07
2.77742e-07
2.77585e-07
2.77277e-07
2.76837e-07
2.76306e-07
2.75744e-07
2.75225e-07
2.748e-07
2.74443e-07
2.74135e-07
2.77427e-07
2.77277e-07
2.76979e-07
2.76555e-07
2.76046e-07
2.75512e-07
2.75022e-07
2.74623e-07
2.74277e-07
2.73963e-07
2.76979e-07
2.76837e-07
2.76555e-07
2.76157e-07
2.75682e-07
2.75189e-07
2.74745e-07
2.74386e-07
2.74062e-07
2.73745e-07
2.76438e-07
2.76306e-07
2.76046e-07
2.75682e-07
2.75253e-07
2.74816e-07
2.74431e-07
2.74126e-07
2.73835e-07
2.73528e-07
2.75864e-07
2.75744e-07
2.75512e-07
2.75189e-07
2.74816e-07
2.74446e-07
2.7413e-07
2.73885e-07
2.7364e-07
2.73359e-07
2.7533e-07
2.75225e-07
2.75022e-07
2.74745e-07
2.74431e-07
2.7413e-07
2.73883e-07
2.73699e-07
2.73506e-07
2.73271e-07
2.74894e-07
2.748e-07
2.74623e-07
2.74386e-07
2.74126e-07
2.73885e-07
2.73699e-07
2.73569e-07
2.73432e-07
2.73258e-07
2.74536e-07
2.74443e-07
2.74277e-07
2.74062e-07
2.73835e-07
2.7364e-07
2.73506e-07
2.73432e-07
2.73363e-07
2.73272e-07
2.7423e-07
2.74135e-07
2.73963e-07
2.73745e-07
2.73528e-07
2.73359e-07
2.73271e-07
2.73258e-07
2.73272e-07
2.73278e-07
2.73193e-07
2.7305e-07
2.72767e-07
2.7237e-07
2.71899e-07
2.7141e-07
2.70965e-07
2.70603e-07
2.70304e-07
2.70043e-07
2.7305e-07
2.72909e-07
2.72631e-07
2.72241e-07
2.71779e-07
2.71301e-07
2.70868e-07
2.70516e-07
2.70219e-07
2.69956e-07
2.72767e-07
2.72631e-07
2.72363e-07
2.71987e-07
2.71544e-07
2.71091e-07
2.70684e-07
2.70356e-07
2.70068e-07
2.69801e-07
2.7237e-07
2.72241e-07
2.71987e-07
2.71633e-07
2.71221e-07
2.70804e-07
2.70436e-07
2.70144e-07
2.69875e-07
2.69607e-07
2.71899e-07
2.71779e-07
2.71544e-07
2.71221e-07
2.70849e-07
2.70481e-07
2.70164e-07
2.69917e-07
2.69677e-07
2.69418e-07
2.7141e-07
2.71301e-07
2.71091e-07
2.70804e-07
2.70481e-07
2.70168e-07
2.6991e-07
2.69713e-07
2.69511e-07
2.69276e-07
2.70965e-07
2.70868e-07
2.70684e-07
2.70436e-07
2.70164e-07
2.6991e-07
2.69707e-07
2.69559e-07
2.69401e-07
2.69204e-07
2.70603e-07
2.70517e-07
2.70356e-07
2.70144e-07
2.69917e-07
2.69713e-07
2.69559e-07
2.69454e-07
2.69341e-07
2.69196e-07
2.70304e-07
2.70219e-07
2.70068e-07
2.69875e-07
2.69677e-07
2.69511e-07
2.69401e-07
2.69341e-07
2.69285e-07
2.69209e-07
2.70043e-07
2.69956e-07
2.69801e-07
2.69607e-07
2.69418e-07
2.69276e-07
2.69204e-07
2.69196e-07
2.69209e-07
2.69214e-07
2.68643e-07
2.68516e-07
2.68265e-07
2.67916e-07
2.6751e-07
2.67095e-07
2.66724e-07
2.66424e-07
2.66171e-07
2.65946e-07
2.68516e-07
2.6839e-07
2.68143e-07
2.67801e-07
2.67402e-07
2.66998e-07
2.66637e-07
2.66346e-07
2.66095e-07
2.65869e-07
2.68265e-07
2.68143e-07
2.67904e-07
2.67574e-07
2.67193e-07
2.6681e-07
2.66473e-07
2.66203e-07
2.65961e-07
2.65731e-07
2.67916e-07
2.67801e-07
2.67574e-07
2.67264e-07
2.6691e-07
2.66559e-07
2.66256e-07
2.66017e-07
2.65793e-07
2.65563e-07
2.6751e-07
2.67402e-07
2.67193e-07
2.6691e-07
2.66591e-07
2.66282e-07
2.66023e-07
2.65823e-07
2.65623e-07
2.65402e-07
2.67095e-07
2.66998e-07
2.6681e-07
2.66559e-07
2.66282e-07
2.66022e-07
2.65811e-07
2.65652e-07
2.65485e-07
2.65285e-07
2.66724e-07
2.66637e-07
2.66473e-07
2.66256e-07
2.66023e-07
2.65811e-07
2.65646e-07
2.65527e-07
2.65396e-07
2.6523e-07
2.66424e-07
2.66346e-07
2.66203e-07
2.66017e-07
2.65823e-07
2.65652e-07
2.65527e-07
2.65442e-07
2.65348e-07
2.65227e-07
2.66171e-07
2.66095e-07
2.65961e-07
2.65793e-07
2.65623e-07
2.65485e-07
2.65396e-07
2.65348e-07
2.65302e-07
2.65239e-07
2.65946e-07
2.65869e-07
2.65731e-07
2.65563e-07
2.65402e-07
2.65285e-07
2.6523e-07
2.65227e-07
2.65239e-07
2.65243e-07
2.6424e-07
2.64128e-07
2.63906e-07
2.63603e-07
2.63254e-07
2.62904e-07
2.62593e-07
2.62344e-07
2.62129e-07
2.61932e-07
2.64128e-07
2.64017e-07
2.63798e-07
2.635e-07
2.63159e-07
2.62818e-07
2.62517e-07
2.62275e-07
2.62062e-07
2.61865e-07
2.63906e-07
2.63798e-07
2.63588e-07
2.63301e-07
2.62975e-07
2.62653e-07
2.62373e-07
2.6215e-07
2.61945e-07
2.61745e-07
2.63603e-07
2.635e-07
2.63301e-07
2.63032e-07
2.62729e-07
2.62435e-07
2.62186e-07
2.6199e-07
2.618e-07
2.61601e-07
2.63254e-07
2.63159e-07
2.62975e-07
2.62729e-07
2.62457e-07
2.62201e-07
2.61989e-07
2.61825e-07
2.61658e-07
2.61467e-07
2.62904e-07
2.62818e-07
2.62653e-07
2.62435e-07
2.62201e-07
2.61985e-07
2.61814e-07
2.61685e-07
2.61545e-07
2.61373e-07
2.62593e-07
2.62517e-07
2.62373e-07
2.62186e-07
2.61989e-07
2.61814e-07
2.6168e-07
2.61584e-07
2.61474e-07
2.61333e-07
2.62344e-07
2.62275e-07
2.6215e-07
2.6199e-07
2.61825e-07
2.61685e-07
2.61584e-07
2.61515e-07
2.61437e-07
2.61335e-07
2.62129e-07
2.62062e-07
2.61945e-07
2.618e-07
2.61658e-07
2.61545e-07
2.61474e-07
2.61437e-07
2.614e-07
2.61346e-07
2.61932e-07
2.61865e-07
2.61745e-07
2.61601e-07
2.61467e-07
2.61373e-07
2.61333e-07
2.61335e-07
2.61346e-07
2.61349e-07
2.59971e-07
2.59873e-07
2.59678e-07
2.59415e-07
2.59116e-07
2.58821e-07
2.58562e-07
2.58353e-07
2.58168e-07
2.57995e-07
2.59873e-07
2.59775e-07
2.59584e-07
2.59325e-07
2.59033e-07
2.58746e-07
2.58495e-07
2.58293e-07
2.5811e-07
2.57937e-07
2.59678e-07
2.59584e-07
2.59399e-07
2.59151e-07
2.58872e-07
2.58602e-07
2.5837e-07
2.58185e-07
2.5801e-07
2.57835e-07
2.59415e-07
2.59325e-07
2.59151e-07
2.58918e-07
2.58661e-07
2.58416e-07
2.58211e-07
2.58049e-07
2.57888e-07
2.57714e-07
2.59116e-07
2.59033e-07
2.58872e-07
2.58661e-07
2.58432e-07
2.58218e-07
2.58046e-07
2.57912e-07
2.57769e-07
2.57604e-07
2.58821e-07
2.58746e-07
2.58602e-07
2.58416e-07
2.58218e-07
2.58041e-07
2.57902e-07
2.57797e-07
2.57678e-07
2.5753e-07
2.58562e-07
2.58495e-07
2.5837e-07
2.58211e-07
2.58046e-07
2.57902e-07
2.57794e-07
2.57716e-07
2.57623e-07
2.57502e-07
2.58353e-07
2.58293e-07
2.58185e-07
2.58049e-07
2.57912e-07
2.57797e-07
2.57716e-07
2.57661e-07
2.57595e-07
2.57508e-07
2.58168e-07
2.5811e-07
2.5801e-07
2.57888e-07
2.57769e-07
2.57678e-07
2.57623e-07
2.57595e-07
2.57565e-07
2.57519e-07
2.57995e-07
2.57937e-07
2.57835e-07
2.57714e-07
2.57604e-07
2.5753e-07
2.57502e-07
2.57508e-07
2.57519e-07
2.57522e-07
2.55823e-07
2.55737e-07
2.55567e-07
2.55339e-07
2.55084e-07
2.54835e-07
2.54618e-07
2.54441e-07
2.54282e-07
2.54127e-07
2.55737e-07
2.55651e-07
2.55484e-07
2.55261e-07
2.55012e-07
2.5477e-07
2.5456e-07
2.5439e-07
2.54232e-07
2.54078e-07
2.55567e-07
2.55484e-07
2.55323e-07
2.55109e-07
2.54873e-07
2.54646e-07
2.54453e-07
2.54298e-07
2.54147e-07
2.53993e-07
2.55339e-07
2.55261e-07
2.55109e-07
2.5491e-07
2.54692e-07
2.54488e-07
2.54318e-07
2.54184e-07
2.54045e-07
2.53892e-07
2.55084e-07
2.55012e-07
2.54873e-07
2.54692e-07
2.54499e-07
2.54322e-07
2.54181e-07
2.5407e-07
2.53948e-07
2.53804e-07
2.54835e-07
2.5477e-07
2.54646e-07
2.54488e-07
2.54322e-07
2.54176e-07
2.54063e-07
2.53977e-07
2.53876e-07
2.53747e-07
2.54618e-07
2.5456e-07
2.54453e-07
2.54318e-07
2.54181e-07
2.54063e-07
2.53977e-07
2.53913e-07
2.53834e-07
2.53729e-07
2.54441e-07
2.5439e-07
2.54298e-07
2.54184e-07
2.5407e-07
2.53977e-07
2.53913e-07
2.53869e-07
2.53814e-07
2.53738e-07
2.54282e-07
2.54232e-07
2.54147e-07
2.54045e-07
2.53948e-07
2.53876e-07
2.53834e-07
2.53814e-07
2.53788e-07
2.53749e-07
2.54127e-07
2.54078e-07
2.53993e-07
2.53892e-07
2.53804e-07
2.53747e-07
2.53729e-07
2.53738e-07
2.53749e-07
2.53752e-07
2.51783e-07
2.51708e-07
2.51559e-07
2.51363e-07
2.51145e-07
2.50934e-07
2.50751e-07
2.50602e-07
2.50463e-07
2.50324e-07
2.51708e-07
2.51633e-07
2.51488e-07
2.51295e-07
2.51082e-07
2.50878e-07
2.50702e-07
2.50559e-07
2.50421e-07
2.50283e-07
2.51559e-07
2.51488e-07
2.51348e-07
2.51164e-07
2.50963e-07
2.50772e-07
2.50611e-07
2.50481e-07
2.5035e-07
2.50212e-07
2.51363e-07
2.51295e-07
2.51164e-07
2.50993e-07
2.50809e-07
2.50638e-07
2.50498e-07
2.50385e-07
2.50265e-07
2.5013e-07
2.51145e-07
2.51082e-07
2.50963e-07
2.50809e-07
2.50646e-07
2.505e-07
2.50384e-07
2.50292e-07
2.50187e-07
2.5006e-07
2.50934e-07
2.50878e-07
2.50772e-07
2.50638e-07
2.505e-07
2.5038e-07
2.50289e-07
2.50218e-07
2.5013e-07
2.50018e-07
2.50751e-07
2.50702e-07
2.50611e-07
2.50498e-07
2.50384e-07
2.50289e-07
2.50219e-07
2.50167e-07
2.50099e-07
2.50008e-07
2.50602e-07
2.50559e-07
2.50481e-07
2.50385e-07
2.50292e-07
2.50218e-07
2.50167e-07
2.50132e-07
2.50085e-07
2.50019e-07
2.50463e-07
2.50421e-07
2.5035e-07
2.50265e-07
2.50187e-07
2.5013e-07
2.50099e-07
2.50085e-07
2.50064e-07
2.5003e-07
2.50324e-07
2.50283e-07
2.50212e-07
2.5013e-07
2.5006e-07
2.50018e-07
2.50008e-07
2.50019e-07
2.5003e-07
2.50033e-07
2.47839e-07
2.47773e-07
2.47644e-07
2.47474e-07
2.47288e-07
2.47109e-07
2.46955e-07
2.46828e-07
2.46705e-07
2.4658e-07
2.47773e-07
2.47709e-07
2.47582e-07
2.47416e-07
2.47234e-07
2.47061e-07
2.46913e-07
2.46791e-07
2.4667e-07
2.46546e-07
2.47644e-07
2.47582e-07
2.47461e-07
2.47302e-07
2.47131e-07
2.46971e-07
2.46836e-07
2.46726e-07
2.46611e-07
2.46487e-07
2.47474e-07
2.47416e-07
2.47302e-07
2.47156e-07
2.47e-07
2.46858e-07
2.46741e-07
2.46647e-07
2.46542e-07
2.46421e-07
2.47288e-07
2.47234e-07
2.47131e-07
2.47e-07
2.46864e-07
2.46743e-07
2.46648e-07
2.46571e-07
2.46479e-07
2.46366e-07
2.47109e-07
2.47061e-07
2.46971e-07
2.46858e-07
2.46743e-07
2.46645e-07
2.46571e-07
2.46512e-07
2.46436e-07
2.46336e-07
2.46955e-07
2.46913e-07
2.46836e-07
2.46741e-07
2.46648e-07
2.46571e-07
2.46515e-07
2.46472e-07
2.46413e-07
2.46333e-07
2.46828e-07
2.46791e-07
2.46726e-07
2.46647e-07
2.46571e-07
2.46512e-07
2.46472e-07
2.46444e-07
2.46404e-07
2.46346e-07
2.46705e-07
2.4667e-07
2.46611e-07
2.46542e-07
2.46479e-07
2.46436e-07
2.46413e-07
2.46404e-07
2.46386e-07
2.46357e-07
2.4658e-07
2.46546e-07
2.46487e-07
2.46421e-07
2.46366e-07
2.46336e-07
2.46333e-07
2.46346e-07
2.46357e-07
2.4636e-07
2.4398e-07
2.43923e-07
2.43811e-07
2.43664e-07
2.43504e-07
2.43352e-07
2.43221e-07
2.43111e-07
2.43003e-07
2.42889e-07
2.43923e-07
2.43867e-07
2.43757e-07
2.43613e-07
2.43458e-07
2.43311e-07
2.43185e-07
2.43081e-07
2.42973e-07
2.42861e-07
2.43811e-07
2.43757e-07
2.43651e-07
2.43515e-07
2.4337e-07
2.43234e-07
2.43121e-07
2.43026e-07
2.42925e-07
2.42813e-07
2.43664e-07
2.43613e-07
2.43515e-07
2.4339e-07
2.43259e-07
2.43139e-07
2.43042e-07
2.42961e-07
2.42869e-07
2.4276e-07
2.43504e-07
2.43458e-07
2.4337e-07
2.43259e-07
2.43145e-07
2.43044e-07
2.42965e-07
2.429e-07
2.4282e-07
2.42719e-07
2.43352e-07
2.43311e-07
2.43234e-07
2.43139e-07
2.43044e-07
2.42964e-07
2.42903e-07
2.42854e-07
2.42787e-07
2.42698e-07
2.43221e-07
2.43185e-07
2.43121e-07
2.43042e-07
2.42965e-07
2.42903e-07
2.42858e-07
2.42823e-07
2.42772e-07
2.427e-07
2.43111e-07
2.43081e-07
2.43026e-07
2.42961e-07
2.429e-07
2.42854e-07
2.42823e-07
2.42801e-07
2.42765e-07
2.42714e-07
2.43003e-07
2.42973e-07
2.42925e-07
2.42869e-07
2.4282e-07
2.42787e-07
2.42772e-07
2.42765e-07
2.42751e-07
2.42726e-07
2.42889e-07
2.42861e-07
2.42813e-07
2.4276e-07
2.42719e-07
2.42698e-07
2.427e-07
2.42714e-07
2.42726e-07
2.42728e-07
2.40197e-07
2.40148e-07
2.40049e-07
2.39922e-07
2.39784e-07
2.39654e-07
2.39542e-07
2.39448e-07
2.39351e-07
2.39247e-07
2.40148e-07
2.40099e-07
2.40003e-07
2.39879e-07
2.39745e-07
2.3962e-07
2.39513e-07
2.39422e-07
2.39327e-07
2.39224e-07
2.40049e-07
2.40003e-07
2.39911e-07
2.39794e-07
2.3967e-07
2.39555e-07
2.39458e-07
2.39377e-07
2.39287e-07
2.39186e-07
2.39922e-07
2.39879e-07
2.39794e-07
2.39687e-07
2.39576e-07
2.39475e-07
2.39393e-07
2.39324e-07
2.39242e-07
2.39145e-07
2.39784e-07
2.39745e-07
2.3967e-07
2.39576e-07
2.3948e-07
2.39396e-07
2.39331e-07
2.39275e-07
2.39204e-07
2.39113e-07
2.39654e-07
2.3962e-07
2.39555e-07
2.39475e-07
2.39396e-07
2.3933e-07
2.39281e-07
2.39239e-07
2.3918e-07
2.39101e-07
2.39542e-07
2.39513e-07
2.39458e-07
2.39393e-07
2.39331e-07
2.39281e-07
2.39245e-07
2.39216e-07
2.3917e-07
2.39107e-07
2.39448e-07
2.39422e-07
2.39377e-07
2.39324e-07
2.39275e-07
2.39239e-07
2.39216e-07
2.39198e-07
2.39167e-07
2.39122e-07
2.39351e-07
2.39327e-07
2.39287e-07
2.39242e-07
2.39204e-07
2.3918e-07
2.3917e-07
2.39167e-07
2.39155e-07
2.39132e-07
2.39247e-07
2.39224e-07
2.39186e-07
2.39145e-07
2.39113e-07
2.39101e-07
2.39107e-07
2.39122e-07
2.39132e-07
2.39135e-07
2.36481e-07
2.36438e-07
2.36352e-07
2.36241e-07
2.36122e-07
2.36011e-07
2.35914e-07
2.35832e-07
2.35745e-07
2.3565e-07
2.36438e-07
2.36396e-07
2.36312e-07
2.36204e-07
2.36089e-07
2.35982e-07
2.3589e-07
2.35811e-07
2.35725e-07
2.35632e-07
2.36352e-07
2.36312e-07
2.36232e-07
2.36131e-07
2.36024e-07
2.35927e-07
2.35844e-07
2.35774e-07
2.35693e-07
2.35601e-07
2.36241e-07
2.36204e-07
2.36131e-07
2.36039e-07
2.35945e-07
2.3586e-07
2.3579e-07
2.35731e-07
2.35658e-07
2.35569e-07
2.36122e-07
2.36089e-07
2.36024e-07
2.35945e-07
2.35864e-07
2.35795e-07