/*--------------------------------*- C++ -*----------------------------------*\
| =========                 |                                                 |
| \\      /  F ield         | OpenFOAM: The Open Source CFD Toolbox           |
|  \\    /   O peration     | Version:  2212                                  |
|   \\  /    A nd           | Website:  www.openfoam.com                      |
|    \\/     M anipulation  |                                                 |
\*---------------------------------------------------------------------------*/
FoamFile
{
    version     2.0;
    format      ascii;
    arch        "LSB;label=32;scalar=64";
    class       surfaceScalarField;
    location    "113";
    object      phi;
}
// * * * * * * * * * * * * * * * * * * * * * * * * * * * * * * * * * * * * * //

dimensions      [0 3 -1 0 0 0 0];

oriented        oriented;

internalField   nonuniform List<scalar> 
27900
(
-9.85775e-09
-9.85775e-09
2.94052e-06
-2.06854e-08
-9.93366e-09
2.94156e-06
-3.39642e-08
-1.00878e-08
2.94417e-06
-5.21016e-08
-1.03013e-08
2.94924e-06
-7.98936e-08
-1.05629e-08
2.95915e-06
-1.26647e-07
-1.07405e-08
2.97829e-06
-2.08526e-07
-1.03488e-08
3.01303e-06
-3.50685e-07
-1.0553e-08
3.07351e-06
-5.23439e-07
-1.33587e-08
3.10691e-06
1.77809e-09
2.39558e-06
-9.93366e-09
-2.06854e-08
2.94156e-06
-2.0804e-08
-2.0804e-08
2.94254e-06
-3.41169e-08
-2.11064e-08
2.94513e-06
-5.22242e-08
-2.1547e-08
2.95015e-06
-7.98754e-08
-2.20875e-08
2.95998e-06
-1.25999e-07
-2.26144e-08
2.9788e-06
-2.05716e-07
-2.28931e-08
3.01306e-06
-3.47834e-07
-2.29809e-08
3.07535e-06
-5.32851e-07
-2.22099e-08
3.11467e-06
-1.44277e-08
2.40415e-06
-1.00877e-08
-3.39642e-08
2.94417e-06
-2.11064e-08
-3.41168e-08
2.94513e-06
-3.45608e-08
-3.45607e-08
2.94771e-06
-5.27796e-08
-3.52265e-08
2.9527e-06
-8.04618e-08
-3.60707e-08
2.96247e-06
-1.26444e-07
-3.69716e-08
2.98114e-06
-2.06072e-07
-3.76678e-08
3.0152e-06
-3.48222e-07
-3.77748e-08
3.07774e-06
-5.30134e-07
-3.62433e-08
3.11674e-06
-2.63919e-08
2.40263e-06
-1.03013e-08
-5.21016e-08
2.94924e-06
-2.1547e-08
-5.22243e-08
2.95015e-06
-3.52266e-08
-5.27798e-08
2.9527e-06
-5.36429e-08
-5.36431e-08
2.95763e-06
-8.14406e-08
-5.47862e-08
2.96731e-06
-1.27379e-07
-5.60904e-08
2.98586e-06
-2.0678e-07
-5.72417e-08
3.01978e-06
-3.48489e-07
-5.75377e-08
3.08227e-06
-5.29763e-07
-5.53201e-08
3.12115e-06
-4.11224e-08
2.40577e-06
-1.05629e-08
-7.98938e-08
2.95915e-06
-2.20875e-08
-7.98757e-08
2.95998e-06
-3.60707e-08
-8.04622e-08
2.96247e-06
-5.4786e-08
-8.14411e-08
2.96731e-06
-8.28142e-08
-8.28146e-08
2.97686e-06
-1.28803e-07
-8.44982e-08
2.9952e-06
-2.07948e-07
-8.61496e-08
3.02885e-06
-3.49042e-07
-8.67483e-08
3.0911e-06
-5.29723e-07
-8.362e-08
3.12978e-06
-6.23632e-08
2.41232e-06
-1.07406e-08
-1.26647e-07
2.97829e-06
-2.26146e-08
-1.25999e-07
2.9788e-06
-3.69717e-08
-1.26444e-07
2.98114e-06
-5.60902e-08
-1.27379e-07
2.98586e-06
-8.44977e-08
-1.28803e-07
2.9952e-06
-1.30702e-07
-1.30702e-07
3.01321e-06
-2.0966e-07
-1.32773e-07
3.04638e-06
-3.4993e-07
-1.33695e-07
3.10802e-06
-5.2969e-07
-1.29065e-07
3.146e-06
-9.58243e-08
2.42457e-06
-1.03489e-08
-2.08526e-07
3.01303e-06
-2.28932e-08
-2.05715e-07
3.01306e-06
-3.76679e-08
-2.06072e-07
3.0152e-06
-5.72416e-08
-2.0678e-07
3.01978e-06
-8.61492e-08
-2.07948e-07
3.02885e-06
-1.32773e-07
-2.09659e-07
3.04638e-06
-2.11752e-07
-2.11752e-07
3.07876e-06
-3.51042e-07
-2.12838e-07
3.13923e-06
-5.29102e-07
-2.05818e-07
3.17561e-06
-1.51264e-07
2.44714e-06
-1.05531e-08
-3.50685e-07
3.07351e-06
-2.2981e-08
-3.47834e-07
3.07535e-06
-3.77749e-08
-3.48222e-07
3.07775e-06
-5.75376e-08
-3.48489e-07
3.08227e-06
-8.6748e-08
-3.49041e-07
3.09111e-06
-1.33695e-07
-3.4993e-07
3.10802e-06
-2.12838e-07
-3.51042e-07
3.13923e-06
-3.51373e-07
-3.51372e-07
3.19787e-06
-5.2768e-07
-3.4028e-07
3.23157e-06
-2.49921e-07
2.49178e-06
-1.33586e-08
-5.23439e-07
3.10691e-06
-2.22098e-08
-5.32851e-07
3.11467e-06
-3.62433e-08
-5.30134e-07
3.11675e-06
-5.532e-08
-5.29762e-07
3.12115e-06
-8.36198e-08
-5.29723e-07
3.12978e-06
-1.29065e-07
-5.2969e-07
3.146e-06
-2.05818e-07
-5.29102e-07
3.17561e-06
-3.4028e-07
-5.2768e-07
3.23157e-06
-5.13747e-07
-5.13747e-07
3.26774e-06
-3.92947e-07
2.55008e-06
1.77812e-09
2.39558e-06
-1.44277e-08
2.40415e-06
-2.63918e-08
2.40263e-06
-4.11224e-08
2.40577e-06
-6.23632e-08
2.41232e-06
-9.58244e-08
2.42457e-06
-1.51265e-07
2.44714e-06
-2.49922e-07
2.49178e-06
-3.92947e-07
2.55008e-06
2.13491e-06
-2.94503e-08
-2.94503e-08
2.99942e-06
-6.19733e-08
-2.96247e-08
3.00371e-06
-1.01149e-07
-3.00269e-08
3.01337e-06
-1.52797e-07
-3.0586e-08
3.03147e-06
-2.25998e-07
-3.1233e-08
3.06359e-06
-3.33515e-07
-3.18072e-08
3.11762e-06
-4.84339e-07
-3.16574e-08
3.19551e-06
-6.3419e-07
-3.14883e-08
3.25485e-06
-5.62719e-07
-3.36753e-08
3.06912e-06
-1.98596e-08
1.85272e-06
-2.96247e-08
-6.19733e-08
3.00371e-06
-6.23535e-08
-6.23535e-08
3.008e-06
-1.01681e-07
-6.319e-08
3.01762e-06
-1.53398e-07
-6.43843e-08
3.03567e-06
-2.26603e-07
-6.57774e-08
3.06773e-06
-3.34261e-07
-6.70196e-08
3.12167e-06
-4.85015e-07
-6.73889e-08
3.19954e-06
-6.34961e-07
-6.63391e-08
3.26013e-06
-5.68922e-07
-6.14453e-08
3.07637e-06
-3.70244e-08
1.8524e-06
-3.00269e-08
-1.01149e-07
3.01337e-06
-6.31901e-08
-1.01681e-07
3.01762e-06
-1.02909e-07
-1.02909e-07
3.02714e-06
-1.54924e-07
-1.04706e-07
3.04503e-06
-2.28234e-07
-1.06868e-07
3.07686e-06
-3.35695e-07
-1.08917e-07
3.1305e-06
-4.86112e-07
-1.0987e-07
3.20809e-06
-6.35787e-07
-1.07939e-07
3.26901e-06
-5.6817e-07
-9.80715e-08
3.08573e-06
-6.08016e-08
1.85824e-06
-3.05858e-08
-1.52797e-07
3.03147e-06
-6.43843e-08
-1.53398e-07
3.03567e-06
-1.04706e-07
-1.54924e-07
3.04503e-06
-1.57228e-07
-1.57229e-07
3.06268e-06
-2.30801e-07
-1.60132e-07
3.09415e-06
-3.38086e-07
-1.63095e-07
3.14732e-06
-4.87841e-07
-1.6483e-07
3.22448e-06
-6.36495e-07
-1.62298e-07
3.28528e-06
-5.67796e-07
-1.47222e-07
3.10157e-06
-9.17702e-08
1.86894e-06
-3.12329e-08
-2.25998e-07
3.06359e-06
-6.57777e-08
-2.26604e-07
3.06773e-06
-1.06868e-07
-2.28236e-07
3.07686e-06
-1.60131e-07
-2.30803e-07
3.09415e-06
-2.34236e-07
-2.34238e-07
3.12506e-06
-3.41553e-07
-2.38065e-07
3.17748e-06
-4.90599e-07
-2.40772e-07
3.25383e-06
-6.3787e-07
-2.37912e-07
3.31398e-06
-5.67828e-07
-2.16409e-07
3.1289e-06
-1.3465e-07
1.88737e-06
-3.18079e-08
-3.33515e-07
3.11762e-06
-6.70203e-08
-3.34261e-07
3.12167e-06
-1.08918e-07
-3.35695e-07
3.1305e-06
-1.63094e-07
-3.38086e-07
3.14732e-06
-2.38063e-07
-3.41552e-07
3.17748e-06
-3.45859e-07
-3.45859e-07
3.22881e-06
-4.94555e-07
-3.49547e-07
3.30384e-06
-6.40303e-07
-3.4677e-07
3.36262e-06
-5.68229e-07
-3.17024e-07
3.17452e-06
-1.96156e-07
1.91785e-06
-3.16581e-08
-4.84338e-07
3.19551e-06
-6.73895e-08
-4.85014e-07
3.19954e-06
-1.0987e-07
-4.8611e-07
3.20809e-06
-1.64829e-07
-4.87839e-07
3.22448e-06
-2.40771e-07
-4.90597e-07
3.25383e-06
-3.49547e-07
-4.94553e-07
3.30384e-06
-4.98819e-07
-4.98818e-07
3.37728e-06
-6.4371e-07
-4.97168e-07
3.4345e-06
-5.68654e-07
-4.59033e-07
3.24253e-06
-2.81902e-07
1.96423e-06
-3.14884e-08
-6.34189e-07
3.25485e-06
-6.63389e-08
-6.3496e-07
3.26014e-06
-1.07939e-07
-6.35786e-07
3.26902e-06
-1.62297e-07
-6.36494e-07
3.28528e-06
-2.37911e-07
-6.37869e-07
3.31398e-06
-3.4677e-07
-6.40303e-07
3.36262e-06
-4.97169e-07
-6.43709e-07
3.4345e-06
-6.44423e-07
-6.44422e-07
3.49237e-06
-5.70218e-07
-6.06585e-07
3.30489e-06
-3.77754e-07
2.01741e-06
-3.36748e-08
-5.62719e-07
3.06912e-06
-6.14451e-08
-5.68922e-07
3.07637e-06
-9.80714e-08
-5.6817e-07
3.08573e-06
-1.47221e-07
-5.67796e-07
3.10157e-06
-2.16408e-07
-5.67828e-07
3.1289e-06
-3.17025e-07
-5.6823e-07
3.17452e-06
-4.59034e-07
-5.68654e-07
3.24253e-06
-6.06586e-07
-5.70219e-07
3.30489e-06
-5.53523e-07
-5.53523e-07
3.16155e-06
-3.71173e-07
1.98998e-06
-1.98595e-08
1.85272e-06
-3.70243e-08
1.8524e-06
-6.08015e-08
1.85824e-06
-9.17701e-08
1.86894e-06
-1.3465e-07
1.88737e-06
-1.96156e-07
1.91785e-06
-2.81903e-07
1.96423e-06
-3.77754e-07
2.01741e-06
-3.71173e-07
1.98998e-06
1.39256e-06
-4.70342e-08
-4.70342e-08
3.09348e-06
-9.81132e-08
-4.73672e-08
3.10216e-06
-1.58001e-07
-4.80322e-08
3.12129e-06
-2.32966e-07
-4.89387e-08
3.15538e-06
-3.3008e-07
-4.99254e-08
3.21063e-06
-4.51875e-07
-5.07288e-08
3.29014e-06
-5.77593e-07
-5.05658e-08
3.37179e-06
-6.18642e-07
-4.8548e-08
3.34445e-06
-4.05194e-07
-4.38477e-08
2.89951e-06
-2.31556e-08
1.47068e-06
-4.73672e-08
-9.81132e-08
3.10216e-06
-9.87874e-08
-9.87874e-08
3.11084e-06
-1.58982e-07
-1.00112e-07
3.1299e-06
-2.34175e-07
-1.01937e-07
3.16386e-06
-3.31416e-07
-1.03932e-07
3.21897e-06
-4.53379e-07
-1.05451e-07
3.29836e-06
-5.79107e-07
-1.05213e-07
3.37993e-06
-6.19296e-07
-1.0117e-07
3.35294e-06
-4.06416e-07
-8.8123e-08
2.90784e-06
-4.79841e-08
1.47081e-06
-4.80321e-08
-1.58002e-07
3.12129e-06
-1.00112e-07
-1.58982e-07
3.1299e-06
-1.60914e-07
-1.60914e-07
3.14875e-06
-2.36568e-07
-1.63645e-07
3.1824e-06
-3.33977e-07
-1.66751e-07
3.23709e-06
-4.55667e-07
-1.69283e-07
3.31604e-06
-5.80737e-07
-1.69333e-07
3.39731e-06
-6.20284e-07
-1.63045e-07
3.37043e-06
-4.06566e-07
-1.40818e-07
2.9248e-06
-7.70823e-08
1.48076e-06
-4.89386e-08
-2.32966e-07
3.15538e-06
-1.01937e-07
-2.34176e-07
3.16386e-06
-1.63645e-07
-2.36569e-07
3.1824e-06
-2.40074e-07
-2.40075e-07
3.21554e-06
-3.37908e-07
-2.44299e-07
3.26953e-06
-4.5942e-07
-2.4812e-07
3.34769e-06
-5.83665e-07
-2.48912e-07
3.42833e-06
-6.22021e-07
-2.40507e-07
3.40108e-06
-4.07094e-07
-2.07554e-07
2.95346e-06
-1.13188e-07
1.49795e-06
-4.99257e-08
-3.30081e-07
3.21063e-06
-1.03933e-07
-3.31418e-07
3.21897e-06
-1.6675e-07
-3.33979e-07
3.23709e-06
-2.44298e-07
-3.37909e-07
3.26953e-06
-3.43027e-07
-3.43028e-07
3.32252e-06
-4.64849e-07
-3.48276e-07
3.39947e-06
-5.88535e-07
-3.50391e-07
3.47902e-06
-6.25476e-07
-3.40291e-07
3.45069e-06
-4.08625e-07
-2.94382e-07
2.99896e-06
-1.59332e-07
1.52488e-06
-5.073e-08
-4.51874e-07
3.29014e-06
-1.05451e-07
-4.53378e-07
3.29837e-06
-1.69283e-07
-4.55666e-07
3.31604e-06
-2.48119e-07
-4.59419e-07
3.34769e-06
-3.48274e-07
-4.64847e-07
3.39947e-06
-4.71325e-07
-4.71324e-07
3.47493e-06
-5.95505e-07
-4.75386e-07
3.55306e-06
-6.31451e-07
-4.64813e-07
3.5231e-06
-4.11711e-07
-4.04441e-07
3.06493e-06
-2.16963e-07
1.56376e-06
-5.05665e-08
-5.77592e-07
3.37179e-06
-1.05213e-07
-5.79105e-07
3.37993e-06
-1.69333e-07
-5.80734e-07
3.39731e-06
-2.48911e-07
-5.83661e-07
3.42833e-06
-3.50389e-07
-5.88532e-07
3.47902e-06
-4.75387e-07
-5.95503e-07
3.55306e-06
-6.01837e-07
-6.01835e-07
3.63024e-06
-6.3877e-07
-5.93705e-07
3.60034e-06
-4.16039e-07
-5.23048e-07
3.1385e-06
-2.78883e-07
1.61011e-06
-4.85473e-08
-6.18642e-07
3.34445e-06
-1.0117e-07
-6.19295e-07
3.35294e-06
-1.63045e-07
-6.20283e-07
3.37043e-06
-2.40506e-07
-6.2202e-07
3.40108e-06
-3.4029e-07
-6.25475e-07
3.45069e-06
-4.64815e-07
-6.3145e-07
3.52309e-06
-5.93708e-07
-6.38769e-07
3.60034e-06
-6.36805e-07
-6.36804e-07
3.57854e-06
-4.18622e-07
-5.75038e-07
3.13879e-06
-3.11882e-07
1.63178e-06
-4.38469e-08
-4.05194e-07
2.89951e-06
-8.81224e-08
-4.06416e-07
2.90784e-06
-1.40817e-07
-4.06567e-07
2.9248e-06
-2.07553e-07
-4.07094e-07
2.95346e-06
-2.94381e-07
-4.08625e-07
2.99896e-06
-4.04442e-07
-4.11712e-07
3.06493e-06
-5.2305e-07
-4.16039e-07
3.1385e-06
-5.75039e-07
-4.18622e-07
3.13879e-06
-3.94183e-07
-3.94183e-07
2.79994e-06
-2.32006e-07
1.51591e-06
-2.31554e-08
1.47068e-06
-4.79839e-08
1.4708e-06
-7.70821e-08
1.48076e-06
-1.13188e-07
1.49795e-06
-1.59332e-07
1.52488e-06
-2.16963e-07
1.56376e-06
-2.78884e-07
1.61011e-06
-3.11883e-07
1.63178e-06
-2.32007e-07
1.51591e-06
9.28547e-07
-6.08875e-08
-6.08875e-08
3.21526e-06
-1.25891e-07
-6.13717e-08
3.22853e-06
-1.99593e-07
-6.22684e-08
3.25726e-06
-2.86577e-07
-6.34496e-08
3.30581e-06
-3.88624e-07
-6.46228e-08
3.3773e-06
-4.95529e-07
-6.53074e-08
3.46235e-06
-5.66591e-07
-6.45198e-08
3.50737e-06
-5.16573e-07
-6.03588e-08
3.3548e-06
-2.72055e-07
-4.97564e-08
2.70475e-06
-2.34272e-08
1.22206e-06
-6.13717e-08
-1.25892e-07
3.22853e-06
-1.2684e-07
-1.2684e-07
3.24177e-06
-2.00967e-07
-1.2861e-07
3.27036e-06
-2.88268e-07
-1.30982e-07
3.3187e-06
-3.90428e-07
-1.33416e-07
3.38992e-06
-4.97232e-07
-1.3489e-07
3.47474e-06
-5.67925e-07
-1.33481e-07
3.5196e-06
-5.16824e-07
-1.2552e-07
3.36697e-06
-2.71531e-07
-1.03353e-07
2.71611e-06
-5.06115e-08
1.22646e-06
-6.22684e-08
-1.99593e-07
3.25726e-06
-1.2861e-07
-2.00967e-07
3.27036e-06
-2.03555e-07
-2.03555e-07
3.29864e-06
-2.91498e-07
-2.07138e-07
3.3465e-06
-3.93946e-07
-2.11023e-07
3.41714e-06
-5.0053e-07
-2.13694e-07
3.50141e-06
-5.705e-07
-2.12109e-07
3.54593e-06
-5.18469e-07
-2.00065e-07
3.3929e-06
-2.72071e-07
-1.64486e-07
2.73948e-06
-8.06799e-08
1.23876e-06
-6.34497e-08
-2.86577e-07
3.30581e-06
-1.30982e-07
-2.88269e-07
3.3187e-06
-2.07138e-07
-2.91498e-07
3.3465e-06
-2.96183e-07
-2.96183e-07
3.39364e-06
-3.99382e-07
-3.01654e-07
3.46336e-06
-5.06077e-07
-3.06042e-07
3.54672e-06
-5.75371e-07
-3.0499e-07
3.59053e-06
-5.21958e-07
-2.88844e-07
3.43641e-06
-2.73608e-07
-2.3739e-07
2.77798e-06
-1.156e-07
1.25926e-06
-6.46231e-08
-3.88625e-07
3.3773e-06
-1.33416e-07
-3.90428e-07
3.38992e-06
-2.11023e-07
-3.93946e-07
3.41714e-06
-3.01653e-07
-3.99382e-07
3.46336e-06
-4.06351e-07
-4.06351e-07
3.5319e-06
-5.14043e-07
-4.12946e-07
3.61405e-06
-5.83313e-07
-4.13475e-07
3.65679e-06
-5.28345e-07
-3.93807e-07
3.50064e-06
-2.76717e-07
-3.24087e-07
2.83399e-06
-1.56213e-07
1.28878e-06
-6.5308e-08
-4.95529e-07
3.46236e-06
-1.3489e-07
-4.97231e-07
3.47474e-06
-2.13693e-07
-5.00529e-07
3.50141e-06
-3.06041e-07
-5.06075e-07
3.54672e-06
-4.12946e-07
-5.14041e-07
3.61405e-06
-5.22993e-07
-5.22991e-07
3.695e-06
-5.93862e-07
-5.26385e-07
3.73684e-06
-5.38085e-07
-5.05273e-07
3.57874e-06
-2.81901e-07
-4.17816e-07
2.90243e-06
-1.9964e-07
1.32529e-06
-6.45199e-08
-5.6659e-07
3.50737e-06
-1.3348e-07
-5.67923e-07
3.5196e-06
-2.12108e-07
-5.70498e-07
3.54593e-06
-3.0499e-07
-5.75369e-07
3.59053e-06
-4.13475e-07
-5.83312e-07
3.65679e-06
-5.26387e-07
-5.9386e-07
3.73684e-06
-6.00924e-07
-6.00923e-07
3.77935e-06
-5.472e-07
-5.82948e-07
3.62427e-06
-2.8773e-07
-4.87754e-07
2.94893e-06
-2.32953e-07
1.35569e-06
-6.03581e-08
-5.16572e-07
3.3548e-06
-1.25519e-07
-5.16824e-07
3.36697e-06
-2.00065e-07
-5.18468e-07
3.39289e-06
-2.88843e-07
-5.21958e-07
3.43641e-06
-3.93807e-07
-5.28344e-07
3.50064e-06
-5.05274e-07
-5.38085e-07
3.57873e-06
-5.8295e-07
-5.47199e-07
3.62427e-06
-5.37979e-07
-5.37978e-07
3.48852e-06
-2.86983e-07
-4.6115e-07
2.86113e-06
-2.25608e-07
1.33746e-06
-4.97559e-08
-2.72055e-07
2.70475e-06
-1.03352e-07
-2.71531e-07
2.71611e-06
-1.64485e-07
-2.72071e-07
2.73948e-06
-2.3739e-07
-2.73608e-07
2.77798e-06
-3.24087e-07
-2.76717e-07
2.83399e-06
-4.17817e-07
-2.81902e-07
2.90243e-06
-4.87756e-07
-2.8773e-07
2.94893e-06
-4.61151e-07
-2.86983e-07
2.86113e-06
-2.57001e-07
-2.57001e-07
2.3916e-06
-1.37328e-07
1.17063e-06
-2.34271e-08
1.22206e-06
-5.06113e-08
1.22646e-06
-8.06797e-08
1.23876e-06
-1.156e-07
1.25926e-06
-1.56213e-07
1.28878e-06
-1.9964e-07
1.32529e-06
-2.32953e-07
1.35569e-06
-2.25608e-07
1.33746e-06
-1.37328e-07
1.17063e-06
6.53892e-07
-7.05917e-08
-7.05917e-08
3.35644e-06
-1.44723e-07
-7.11997e-08
3.37386e-06
-2.25759e-07
-7.23083e-08
3.4106e-06
-3.15394e-07
-7.37345e-08
3.46918e-06
-4.09285e-07
-7.5059e-08
3.54625e-06
-4.87631e-07
-7.55668e-08
3.61627e-06
-5.04993e-07
-7.39914e-08
3.59872e-06
-4.02823e-07
-6.78806e-08
3.32051e-06
-1.79601e-07
-5.33159e-08
2.53485e-06
-2.39274e-08
1.06638e-06
-7.11997e-08
-1.44723e-07
3.37386e-06
-1.45921e-07
-1.45921e-07
3.39122e-06
-2.275e-07
-1.48137e-07
3.42777e-06
-3.17556e-07
-1.51055e-07
3.48607e-06
-4.11632e-07
-1.539e-07
3.56284e-06
-4.89872e-07
-1.55204e-07
3.63261e-06
-5.06847e-07
-1.52284e-07
3.61487e-06
-4.03763e-07
-1.40136e-07
3.33614e-06
-1.79352e-07
-1.10009e-07
2.54839e-06
-4.93649e-08
1.07255e-06
-7.23083e-08
-2.25759e-07
3.4106e-06
-1.48137e-07
-2.275e-07
3.42777e-06
-2.30786e-07
-2.30786e-07
3.46394e-06
-3.2175e-07
-2.3528e-07
3.52169e-06
-4.16381e-07
-2.39964e-07
3.59783e-06
-4.9463e-07
-2.42626e-07
3.66706e-06
-5.10956e-07
-2.38887e-07
3.64885e-06
-4.06619e-07
-2.20423e-07
3.36885e-06
-1.80473e-07
-1.728e-07
2.57612e-06
-7.7125e-08
1.08605e-06
-7.37346e-08
-3.15394e-07
3.46918e-06
-1.51055e-07
-3.17556e-07
3.48607e-06
-2.3528e-07
-3.2175e-07
3.52169e-06
-3.27792e-07
-3.27792e-07
3.57867e-06
-4.23679e-07
-3.34638e-07
3.65393e-06
-5.02501e-07
-3.39443e-07
3.72234e-06
-5.18303e-07
-3.35802e-07
3.70325e-06
-4.1206e-07
-3.10994e-07
3.42075e-06
-1.82802e-07
-2.43487e-07
2.61941e-06
-1.07665e-07
1.107e-06
-7.5059e-08
-4.09284e-07
3.54625e-06
-1.539e-07
-4.11632e-07
3.56284e-06
-2.39964e-07
-4.1638e-07
3.59783e-06
-3.34638e-07
-4.23679e-07
3.65393e-06
-4.32781e-07
-4.32781e-07
3.72819e-06
-5.13366e-07
-4.40536e-07
3.79571e-06
-5.29467e-07
-4.38399e-07
3.77549e-06
-4.20989e-07
-4.08186e-07
3.48936e-06
-1.86869e-07
-3.1961e-07
2.67599e-06
-1.39962e-07
1.13421e-06
-7.55668e-08
-4.8763e-07
3.61627e-06
-1.55204e-07
-4.89871e-07
3.63261e-06
-2.42626e-07
-4.94629e-07
3.66706e-06
-3.39443e-07
-5.025e-07
3.72234e-06
-4.40537e-07
-5.13365e-07
3.79571e-06
-5.2437e-07
-5.24369e-07
3.86263e-06
-5.42559e-07
-5.25436e-07
3.84206e-06
-4.32734e-07
-4.93002e-07
3.55372e-06
-1.92703e-07
-3.87487e-07
2.73027e-06
-1.68907e-07
1.16153e-06
-7.39913e-08
-5.04992e-07
3.59872e-06
-1.52283e-07
-5.06846e-07
3.61487e-06
-2.38886e-07
-5.10955e-07
3.64885e-06
-3.35802e-07
-5.18302e-07
3.70325e-06
-4.384e-07
-5.29466e-07
3.77549e-06
-5.25437e-07
-5.42558e-07
3.84206e-06
-5.47808e-07
-5.47807e-07
3.82409e-06
-4.40455e-07
-5.19571e-07
3.54349e-06
-1.97813e-07
-4.12932e-07
2.73173e-06
-1.81567e-07
1.17054e-06
-6.78804e-08
-4.02823e-07
3.32051e-06
-1.40136e-07
-4.03762e-07
3.33614e-06
-2.20423e-07
-4.06619e-07
3.36885e-06
-3.10994e-07
-4.1206e-07
3.42075e-06
-4.08187e-07
-4.20989e-07
3.48936e-06
-4.93003e-07
-4.32734e-07
3.55372e-06
-5.19572e-07
-4.40455e-07
3.54349e-06
-4.23907e-07
-4.23906e-07
3.29719e-06
-1.94054e-07
-3.45076e-07
2.56341e-06
-1.57252e-07
1.11909e-06
-5.33158e-08
-1.79601e-07
2.53485e-06
-1.10009e-07
-1.79352e-07
2.54839e-06
-1.72799e-07
-1.80473e-07
2.57612e-06
-2.43487e-07
-1.82802e-07
2.61941e-06
-3.1961e-07
-1.86869e-07
2.67599e-06
-3.87488e-07
-1.92703e-07
2.73027e-06
-4.12932e-07
-1.97812e-07
2.73173e-06
-3.45077e-07
-1.94054e-07
2.56341e-06
-1.65704e-07
-1.65703e-07
2.03285e-06
-8.37055e-08
9.31383e-07
-2.39273e-08
1.06638e-06
-4.93647e-08
1.07255e-06
-7.71248e-08
1.08605e-06
-1.07665e-07
1.107e-06
-1.39962e-07
1.13421e-06
-1.68907e-07
1.16153e-06
-1.81567e-07
1.17054e-06
-1.57252e-07
1.11909e-06
-8.37055e-08
9.31383e-07
4.8648e-07
-7.64337e-08
-7.64337e-08
3.50931e-06
-1.55313e-07
-7.71709e-08
3.52991e-06
-2.38218e-07
-7.8513e-08
3.57202e-06
-3.23564e-07
-8.02113e-08
3.63474e-06
-4.01861e-07
-8.17139e-08
3.70626e-06
-4.49008e-07
-8.20503e-08
3.74547e-06
-4.26004e-07
-7.9574e-08
3.65529e-06
-3.04005e-07
-7.14112e-08
3.26992e-06
-1.18645e-07
-5.35905e-08
2.40307e-06
-2.24271e-08
9.70164e-07
-7.71709e-08
-1.55313e-07
3.52991e-06
-1.56781e-07
-1.56781e-07
3.55044e-06
-2.4038e-07
-1.59496e-07
3.59235e-06
-3.26306e-07
-1.63017e-07
3.65481e-06
-4.0494e-07
-1.66295e-07
3.72606e-06
-4.52069e-07
-1.67335e-07
3.76502e-06
-4.28641e-07
-1.62607e-07
3.67448e-06
-3.05646e-07
-1.46165e-07
3.2879e-06
-1.18858e-07
-1.09558e-07
2.41759e-06
-4.53171e-08
9.76576e-07
-7.85131e-08
-2.38218e-07
3.57202e-06
-1.59496e-07
-2.40381e-07
3.59235e-06
-2.44472e-07
-2.44472e-07
3.63389e-06
-3.31654e-07
-2.4999e-07
3.69585e-06
-4.1119e-07
-2.55505e-07
3.76659e-06
-4.58561e-07
-2.57958e-07
3.80506e-06
-4.3442e-07
-2.5157e-07
3.71368e-06
-3.0966e-07
-2.26568e-07
3.3245e-06
-1.20448e-07
-1.69431e-07
2.4468e-06
-6.95097e-08
9.89792e-07
-8.02114e-08
-3.23564e-07
3.63474e-06
-1.63016e-07
-3.26306e-07
3.65481e-06
-2.4999e-07
-3.31654e-07
3.69585e-06
-3.3924e-07
-3.39239e-07
3.75717e-06
-4.20582e-07
-3.47487e-07
3.82726e-06
-4.6891e-07
-3.52336e-07
3.86505e-06
-4.44142e-07
-3.45345e-07
3.77227e-06
-3.16693e-07
-3.11944e-07
3.37869e-06
-1.23298e-07
-2.3277e-07
2.48937e-06
-9.46479e-08
1.00884e-06
-8.17138e-08
-4.01861e-07
3.70626e-06
-1.66294e-07
-4.0494e-07
3.72606e-06
-2.55505e-07
-4.11189e-07
3.76659e-06
-3.47488e-07
-4.20582e-07
3.82726e-06
-4.31747e-07
-4.31747e-07
3.89673e-06
-4.82317e-07
-4.3995e-07
3.9339e-06
-4.57721e-07
-4.34004e-07
3.83957e-06
-3.27124e-07
-3.93852e-07
3.44069e-06
-1.27759e-07
-2.93735e-07
2.53761e-06
-1.18669e-07
1.03047e-06
-8.20502e-08
-4.49008e-07
3.74547e-06
-1.67334e-07
-4.52069e-07
3.76502e-06
-2.57958e-07
-4.58561e-07
3.80505e-06
-3.52337e-07
-4.68909e-07
3.86505e-06
-4.3995e-07
-4.82316e-07
3.9339e-06
-4.94075e-07
-4.94075e-07
3.97088e-06
-4.71421e-07
-4.91172e-07
3.87658e-06
-3.38897e-07
-4.48933e-07
3.47629e-06
-1.33333e-07
-3.36069e-07
2.56706e-06
-1.36038e-07
1.04557e-06
-7.9574e-08
-4.26004e-07
3.65529e-06
-1.62607e-07
-4.28641e-07
3.67448e-06
-2.5157e-07
-4.34419e-07
3.71368e-06
-3.45345e-07
-4.44142e-07
3.77227e-06
-4.34004e-07
-4.5772e-07
3.83957e-06
-4.91173e-07
-4.7142e-07
3.87658e-06
-4.7285e-07
-4.72849e-07
3.78746e-06
-3.43516e-07
-4.36833e-07
3.40208e-06
-1.37032e-07
-3.30887e-07
2.52008e-06
-1.36483e-07
1.03395e-06
-7.14113e-08
-3.04005e-07
3.26992e-06
-1.46165e-07
-3.05646e-07
3.2879e-06
-2.26567e-07
-3.09659e-07
3.3245e-06
-3.11944e-07
-3.16693e-07
3.37869e-06
-3.93852e-07
-3.27123e-07
3.44069e-06
-4.48933e-07
-3.38897e-07
3.47629e-06
-4.36833e-07
-3.43516e-07
3.40208e-06
-3.22409e-07
-3.22409e-07
3.06837e-06
-1.31788e-07
-2.50587e-07
2.29252e-06
-1.08377e-07
9.59192e-07
-5.35906e-08
-1.18645e-07
2.40307e-06
-1.09558e-07
-1.18857e-07
2.41759e-06
-1.69431e-07
-1.20448e-07
2.4468e-06
-2.3277e-07
-1.23298e-07
2.48937e-06
-2.93735e-07
-1.27759e-07
2.53761e-06
-3.36069e-07
-1.33333e-07
2.56706e-06
-3.30887e-07
-1.37032e-07
2.52008e-06
-2.50588e-07
-1.31788e-07
2.29252e-06
-1.08087e-07
-1.08087e-07
1.74786e-06
-5.24033e-08
7.6732e-07
-2.24271e-08
9.70164e-07
-4.53171e-08
9.76576e-07
-6.95096e-08
9.89792e-07
-9.46479e-08
1.00884e-06
-1.18669e-07
1.03047e-06
-1.36038e-07
1.04557e-06
-1.36483e-07
1.03395e-06
-1.08377e-07
9.59192e-07
-5.24033e-08
7.6732e-07
3.81674e-07
-7.89522e-08
-7.89522e-08
3.66721e-06
-1.58943e-07
-7.98352e-08
3.68974e-06
-2.3958e-07
-8.14382e-08
3.7341e-06
-3.16349e-07
-8.34279e-08
3.79493e-06
-3.76633e-07
-8.50922e-08
3.85164e-06
-3.96872e-07
-8.51771e-08
3.85088e-06
-3.49294e-07
-8.16544e-08
3.68937e-06
-2.2773e-07
-7.14313e-08
3.21979e-06
-7.98527e-08
-5.11198e-08
2.30632e-06
-1.97651e-08
9.10076e-07
-7.98352e-08
-1.58943e-07
3.68974e-06
-1.60714e-07
-1.60714e-07
3.7122e-06
-2.42218e-07
-1.63981e-07
3.7564e-06
-3.19744e-07
-1.68138e-07
3.81704e-06
-3.80515e-07
-1.718e-07
3.87354e-06
-4.00784e-07
-1.72383e-07
3.8725e-06
-3.52659e-07
-1.65574e-07
3.71027e-06
-2.29877e-07
-1.45012e-07
3.2387e-06
-8.03622e-08
-1.03729e-07
2.32068e-06
-3.96786e-08
9.16127e-07
-8.14382e-08
-2.3958e-07
3.7341e-06
-1.63981e-07
-2.42218e-07
3.7564e-06
-2.47199e-07
-2.47199e-07
3.80032e-06
-3.26346e-07
-2.53778e-07
3.86064e-06
-3.88331e-07
-2.60006e-07
3.91678e-06
-4.08961e-07
-2.61882e-07
3.91519e-06
-3.59892e-07
-2.52416e-07
3.75145e-06
-2.3477e-07
-2.21363e-07
3.27572e-06
-8.22457e-08
-1.57952e-07
2.3485e-06
-5.999e-08
9.27858e-07
-8.34281e-08
-3.16349e-07
3.79493e-06
-1.68138e-07
-3.19744e-07
3.81704e-06
-2.53778e-07
-3.26345e-07
3.86064e-06
-3.35478e-07
-3.35478e-07
3.92057e-06
-3.99699e-07
-3.44853e-07
3.97633e-06
-4.21435e-07
-3.4909e-07
3.97399e-06
-3.714e-07
-3.3814e-07
3.80795e-06
-2.42817e-07
-2.9721e-07
3.32595e-06
-8.53825e-08
-2.11591e-07
2.38557e-06
-7.98745e-08
9.43339e-07
-8.50922e-08
-3.76633e-07
3.85164e-06
-1.718e-07
-3.80515e-07
3.87354e-06
-2.60005e-07
-3.88331e-07
3.91678e-06
-3.44853e-07
-3.99699e-07
3.97633e-06
-4.12356e-07
-4.12356e-07
4.03174e-06
-4.36397e-07
-4.19905e-07
4.02876e-06
-3.8611e-07
-4.09354e-07
3.8605e-06
-2.53676e-07
-3.61235e-07
3.37227e-06
-8.98591e-08
-2.57132e-07
2.41933e-06
-9.69359e-08
9.57672e-07
-8.51771e-08
-3.96871e-07
3.85088e-06
-1.72383e-07
-4.00784e-07
3.8725e-06
-2.61882e-07
-4.08961e-07
3.91519e-06
-3.4909e-07
-4.21435e-07
3.97399e-06
-4.19905e-07
-4.36397e-07
4.02876e-06
-4.47303e-07
-4.47303e-07
4.02568e-06
-3.98604e-07
-4.39533e-07
3.85806e-06
-2.64147e-07
-3.90475e-07
3.37106e-06
-9.47575e-08
-2.79285e-07
2.41982e-06
-1.06292e-07
9.60166e-07
-8.16544e-08
-3.49294e-07
3.68937e-06
-1.65574e-07
-3.52658e-07
3.71027e-06
-2.52416e-07
-3.59891e-07
3.75145e-06
-3.3814e-07
-3.71399e-07
3.80795e-06
-4.09354e-07
-3.8611e-07
3.8605e-06
-4.39533e-07
-3.98603e-07
3.85806e-06
-3.95491e-07
-3.9549e-07
3.69938e-06
-2.65401e-07
-3.55161e-07
3.23667e-06
-9.70501e-08
-2.57515e-07
2.32996e-06
-1.00798e-07
9.31404e-07
-7.14313e-08
-2.2773e-07
3.21979e-06
-1.45012e-07
-2.29877e-07
3.2387e-06
-2.21362e-07
-2.3477e-07
3.27572e-06
-2.9721e-07
-2.42817e-07
3.32595e-06
-3.61235e-07
-2.53675e-07
3.37227e-06
-3.90475e-07
-2.64146e-07
3.37106e-06
-3.55162e-07
-2.65401e-07
3.23667e-06
-2.42465e-07
-2.42465e-07
2.84296e-06
-9.12429e-08
-1.80859e-07
2.06463e-06
-7.48491e-08
8.42e-07
-5.11198e-08
-7.98527e-08
2.30632e-06
-1.03729e-07
-8.03621e-08
2.32068e-06
-1.57952e-07
-8.22457e-08
2.3485e-06
-2.11591e-07
-8.53824e-08
2.38557e-06
-2.57132e-07
-8.9859e-08
2.41933e-06
-2.79285e-07
-9.47575e-08
2.41982e-06
-2.57515e-07
-9.70502e-08
2.32996e-06
-1.80859e-07
-9.12429e-08
2.06463e-06
-7.20768e-08
-7.20767e-08
1.53029e-06
-3.35524e-08
6.53947e-07
-1.97651e-08
9.10076e-07
-3.96786e-08
9.16127e-07
-5.99899e-08
9.27858e-07
-7.98745e-08
9.43339e-07
-9.69359e-08
9.57672e-07
-1.06292e-07
9.60166e-07
-1.00798e-07
9.31404e-07
-7.4849e-08
8.42e-07
-3.35524e-08
6.53947e-07
3.14569e-07
-7.88255e-08
-7.88255e-08
3.82487e-06
-1.57192e-07
-7.98612e-08
3.84797e-06
-2.32846e-07
-8.17316e-08
3.89148e-06
-2.99124e-07
-8.39965e-08
3.94521e-06
-3.42366e-07
-8.57546e-08
3.98063e-06
-3.42507e-07
-8.54661e-08
3.93649e-06
-2.83012e-07
-8.08126e-08
3.71069e-06
-1.71676e-07
-6.87705e-08
3.17722e-06
-5.53299e-08
-4.69715e-08
2.23694e-06
-1.68447e-08
8.71591e-07
-7.98612e-08
-1.57192e-07
3.84797e-06
-1.59279e-07
-1.59279e-07
3.87103e-06
-2.35973e-07
-1.63106e-07
3.91447e-06
-3.03174e-07
-1.67852e-07
3.9681e-06
-3.47015e-07
-1.71741e-07
4.00337e-06
-3.47189e-07
-1.71599e-07
3.9588e-06
-2.86996e-07
-1.62548e-07
3.73182e-06
-1.7421e-07
-1.38428e-07
3.19556e-06
-5.60371e-08
-9.45295e-08
2.25006e-06
-3.35768e-08
8.76822e-07
-8.17316e-08
-2.32846e-07
3.89148e-06
-1.63106e-07
-2.35973e-07
3.91447e-06
-2.41834e-07
-2.41834e-07
3.95778e-06
-3.10968e-07
-2.49361e-07
4.01127e-06
-3.56235e-07
-2.55991e-07
4.0463e-06
-3.56753e-07
-2.56817e-07
4.00092e-06
-2.95309e-07
-2.44055e-07
3.77152e-06
-1.7969e-07
-2.08021e-07
3.22968e-06
-5.80921e-08
-1.41753e-07
2.27412e-06
-5.01154e-08
8.86304e-07
-8.39965e-08
-2.99124e-07
3.94521e-06
-1.67852e-07
-3.03174e-07
3.9681e-06
-2.49361e-07
-3.10968e-07
4.01128e-06
-3.21398e-07
-3.21398e-07
4.06464e-06
-3.69111e-07
-3.31338e-07
4.09939e-06
-3.70649e-07
-3.34198e-07
4.05291e-06
-3.07814e-07
-3.1906e-07
3.82012e-06
-1.88182e-07
-2.72435e-07
3.27072e-06
-6.13323e-08
-1.85358e-07
2.30232e-06
-6.54124e-08
8.97304e-07
-8.57546e-08
-3.42365e-07
3.98063e-06
-1.71741e-07
-3.47015e-07
4.00337e-06
-2.55991e-07
-3.56234e-07
4.0463e-06
-3.31338e-07
-3.69111e-07
4.09939e-06
-3.8235e-07
-3.8235e-07
4.13376e-06
-3.8594e-07
-3.88142e-07
4.08629e-06
-3.22409e-07
-3.72839e-07
3.85074e-06
-1.98647e-07
-3.19502e-07
3.29556e-06
-6.55794e-08
-2.17633e-07
2.31853e-06
-7.71789e-08
9.03859e-07
-8.54661e-08
-3.42507e-07
3.93649e-06
-1.71599e-07
-3.47189e-07
3.9588e-06
-2.56817e-07
-3.56753e-07
4.00092e-06
-3.34198e-07
-3.70648e-07
4.05291e-06
-3.88143e-07
-3.8594e-07
4.08629e-06
-3.94676e-07
-3.94676e-07
4.03874e-06
-3.32534e-07
-3.82107e-07
3.80518e-06
-2.07185e-07
-3.29621e-07
3.25582e-06
-6.96496e-08
-2.2606e-07
2.2907e-06
-8.15658e-08
8.94904e-07
-8.08126e-08
-2.83012e-07
3.71069e-06
-1.62548e-07
-2.86995e-07
3.73182e-06
-2.44055e-07
-2.95309e-07
3.77152e-06
-3.1906e-07
-3.07813e-07
3.82012e-06
-3.72839e-07
-3.22409e-07
3.85074e-06
-3.82107e-07
-3.32533e-07
3.80518e-06
-3.25247e-07
-3.25246e-07
3.58565e-06
-2.05568e-07
-2.83753e-07
3.07111e-06
-7.07497e-08
-1.97774e-07
2.16685e-06
-7.39856e-08
8.53074e-07
-6.87705e-08
-1.71676e-07
3.17722e-06
-1.38428e-07
-1.7421e-07
3.19556e-06
-2.08021e-07
-1.7969e-07
3.22968e-06
-2.72436e-07
-1.88182e-07
3.27072e-06
-3.19502e-07
-1.98647e-07
3.29556e-06
-3.29621e-07
-2.07185e-07
3.25582e-06
-2.83753e-07
-2.05568e-07
3.07111e-06
-1.82689e-07
-1.82689e-07
2.64081e-06
-6.48633e-08
-1.31303e-07
1.88033e-06
-5.22186e-08
7.5537e-07
-4.69715e-08
-5.53299e-08
2.23694e-06
-9.45294e-08
-5.6037e-08
2.25006e-06
-1.41753e-07
-5.80921e-08
2.27412e-06
-1.85358e-07
-6.13322e-08
2.30232e-06
-2.17633e-07
-6.55793e-08
2.31853e-06
-2.2606e-07
-6.96496e-08
2.29071e-06
-1.97774e-07
-7.07496e-08
2.16685e-06
-1.31303e-07
-6.48632e-08
1.88033e-06
-4.94046e-08
-4.94046e-08
1.3665e-06
-2.20889e-08
5.74412e-07
-1.68448e-08
8.71591e-07
-3.35768e-08
8.76822e-07
-5.01154e-08
8.86304e-07
-6.54124e-08
8.97304e-07
-7.71789e-08
9.03859e-07
-8.15657e-08
8.94904e-07
-7.39856e-08
8.53074e-07
-5.22185e-08
7.5537e-07
-2.20888e-08
5.74412e-07
2.70391e-07
-7.67624e-08
-7.67623e-08
3.97839e-06
-1.51642e-07
-7.79449e-08
4.00079e-06
-2.20828e-07
-8.00615e-08
4.04073e-06
-2.76396e-07
-8.25452e-08
4.08332e-06
-3.05203e-07
-8.42913e-08
4.09373e-06
-2.91829e-07
-8.35057e-08
4.00662e-06
-2.28813e-07
-7.77179e-08
3.72539e-06
-1.31101e-07
-6.42404e-08
3.14375e-06
-3.96151e-08
-4.19163e-08
2.18737e-06
-1.39735e-08
8.45949e-07
-7.79449e-08
-1.51642e-07
4.00079e-06
-1.54029e-07
-1.54029e-07
4.0232e-06
-2.24409e-07
-1.58362e-07
4.06315e-06
-2.81028e-07
-1.6356e-07
4.10573e-06
-3.10499e-07
-1.67431e-07
4.11598e-06
-2.97116e-07
-1.66293e-07
4.0282e-06
-2.33248e-07
-1.55011e-07
3.74524e-06
-1.33894e-07
-1.28181e-07
3.16015e-06
-4.04559e-08
-8.36383e-08
2.19835e-06
-2.76594e-08
8.50052e-07
-8.00615e-08
-2.20828e-07
4.04073e-06
-1.58362e-07
-2.24409e-07
4.06315e-06
-2.31035e-07
-2.31035e-07
4.10313e-06
-2.89798e-07
-2.39245e-07
4.14572e-06
-3.20775e-07
-2.45837e-07
4.15568e-06
-3.07616e-07
-2.45162e-07
4.06663e-06
-2.422e-07
-2.29188e-07
3.78028e-06
-1.39678e-07
-1.89639e-07