/*--------------------------------*- C++ -*----------------------------------*\
| =========                 |                                                 |
| \\      /  F ield         | OpenFOAM: The Open Source CFD Toolbox           |
|  \\    /   O peration     | Version:  2212                                  |
|   \\  /    A nd           | Website:  www.openfoam.com                      |
|    \\/     M anipulation  |                                                 |
\*---------------------------------------------------------------------------*/
FoamFile
{
    version     2.0;
    format      ascii;
    arch        "LSB;label=32;scalar=64";
    class       volVectorField;
    location    "113";
    object      U;
}
// * * * * * * * * * * * * * * * * * * * * * * * * * * * * * * * * * * * * * //

dimensions      [0 1 -1 0 0 0 0];

internalField   nonuniform List<vector> 
10000
(
(0.000292358 -4.92552e-07 -4.92552e-07)
(0.000292384 -1.50636e-06 -4.98727e-07)
(0.000292424 -2.67409e-06 -5.06642e-07)
(0.000292502 -4.19081e-06 -5.17444e-07)
(0.000292679 -6.3836e-06 -5.30315e-07)
(0.000293077 -9.85767e-06 -5.37901e-07)
(0.000293923 -1.58834e-05 -5.18618e-07)
(0.000296549 -2.89036e-05 -5.34646e-07)
(0.000300528 -4.84133e-05 -6.41728e-07)
(0.000241884 -2.7302e-05 9.76172e-08)
(0.000292384 -4.98726e-07 -1.50636e-06)
(0.000292414 -1.52061e-06 -1.52061e-06)
(0.000292454 -2.69319e-06 -1.54367e-06)
(0.000292534 -4.21564e-06 -1.57647e-06)
(0.000292713 -6.40686e-06 -1.61626e-06)
(0.000293098 -9.85134e-06 -1.64976e-06)
(0.000293914 -1.58903e-05 -1.64178e-06)
(0.000296589 -2.90577e-05 -1.66102e-06)
(0.000300548 -4.78046e-05 -1.74983e-06)
(0.000241107 -2.65146e-05 -5.85837e-07)
(0.000292424 -5.06641e-07 -2.67409e-06)
(0.000292454 -1.54367e-06 -2.69319e-06)
(0.000292495 -2.73073e-06 -2.73072e-06)
(0.000292575 -4.2665e-06 -2.78618e-06)
(0.000292753 -6.46545e-06 -2.85537e-06)
(0.000293133 -9.9022e-06 -2.92645e-06)
(0.000293939 -1.59329e-05 -2.97286e-06)
(0.000296631 -2.91137e-05 -2.97949e-06)
(0.000300569 -4.76674e-05 -2.88661e-06)
(0.000240986 -2.6336e-05 -2.00167e-06)
(0.000292502 -5.17441e-07 -4.19082e-06)
(0.000292534 -1.57647e-06 -4.21564e-06)
(0.000292575 -2.78619e-06 -4.26651e-06)
(0.000292654 -4.34371e-06 -4.34371e-06)
(0.000292831 -6.55932e-06 -4.44354e-06)
(0.000293209 -9.99983e-06 -4.55381e-06)
(0.000294013 -1.60159e-05 -4.64554e-06)
(0.000296706 -2.91645e-05 -4.66385e-06)
(0.000300643 -4.76573e-05 -4.48293e-06)
(0.000241076 -2.63208e-05 -3.32808e-06)
(0.000292679 -5.30314e-07 -6.38361e-06)
(0.000292713 -1.61626e-06 -6.40689e-06)
(0.000292753 -2.85538e-06 -6.46548e-06)
(0.000292831 -4.44353e-06 -6.55935e-06)
(0.000293007 -6.68688e-06 -6.68692e-06)
(0.000293383 -1.0143e-05 -6.8376e-06)
(0.000294183 -1.61475e-05 -6.97812e-06)
(0.000296871 -2.92471e-05 -7.02284e-06)
(0.000300819 -4.76888e-05 -6.76592e-06)
(0.000241269 -2.63182e-05 -5.07083e-06)
(0.000293077 -5.37908e-07 -9.85768e-06)
(0.000293098 -1.64978e-06 -9.85136e-06)
(0.000293133 -2.92647e-06 -9.90222e-06)
(0.000293209 -4.55381e-06 -9.99985e-06)
(0.000293383 -6.83757e-06 -1.0143e-05)
(0.000293755 -1.03259e-05 -1.03259e-05)
(0.000294547 -1.63308e-05 -1.0515e-05)
(0.000297221 -2.93727e-05 -1.05942e-05)
(0.000301179 -4.7748e-05 -1.02338e-05)
(0.000241643 -2.62974e-05 -7.67571e-06)
(0.000293923 -5.18627e-07 -1.58834e-05)
(0.000293914 -1.6418e-06 -1.58903e-05)
(0.000293939 -2.97287e-06 -1.59329e-05)
(0.000294013 -4.64554e-06 -1.60159e-05)
(0.000294183 -6.97809e-06 -1.61475e-05)
(0.000294547 -1.0515e-05 -1.63307e-05)
(0.000295321 -1.65408e-05 -1.65408e-05)
(0.000297957 -2.9529e-05 -1.66443e-05)
(0.000301907 -4.78162e-05 -1.61086e-05)
(0.000242373 -2.61717e-05 -1.20156e-05)
(0.000296549 -5.34647e-07 -2.89036e-05)
(0.000296589 -1.66102e-06 -2.90577e-05)
(0.000296631 -2.9795e-06 -2.91136e-05)
(0.000296706 -4.66385e-06 -2.91644e-05)
(0.000296871 -7.02281e-06 -2.92471e-05)
(0.000297221 -1.05942e-05 -2.93727e-05)
(0.000297958 -1.66443e-05 -2.9529e-05)
(0.000300495 -2.95832e-05 -2.95832e-05)
(0.000304271 -4.77729e-05 -2.85687e-05)
(0.000244356 -2.60356e-05 -2.10331e-05)
(0.000300528 -6.41726e-07 -4.84133e-05)
(0.000300548 -1.74983e-06 -4.78046e-05)
(0.000300569 -2.88661e-06 -4.76674e-05)
(0.000300643 -4.48292e-06 -4.76573e-05)
(0.000300819 -6.7659e-06 -4.76888e-05)
(0.000301179 -1.02338e-05 -4.7748e-05)
(0.000301907 -1.61086e-05 -4.78162e-05)
(0.000304271 -2.85687e-05 -4.77728e-05)
(0.000307571 -4.61088e-05 -4.61088e-05)
(0.000247796 -2.59984e-05 -3.4108e-05)
(0.000241884 9.76188e-08 -2.7302e-05)
(0.000241107 -5.85833e-07 -2.65146e-05)
(0.000240986 -2.00166e-06 -2.6336e-05)
(0.000241076 -3.32808e-06 -2.63208e-05)
(0.000241269 -5.07082e-06 -2.63182e-05)
(0.000241643 -7.67571e-06 -2.62974e-05)
(0.000242373 -1.20156e-05 -2.61717e-05)
(0.000244356 -2.10331e-05 -2.60356e-05)
(0.000247796 -3.4108e-05 -2.59984e-05)
(0.000207623 -1.9096e-05 -1.9096e-05)
(0.000296053 -1.45383e-06 -1.45383e-06)
(0.000296289 -4.47693e-06 -1.46645e-06)
(0.000296806 -7.95118e-06 -1.48673e-06)
(0.000297806 -1.23301e-05 -1.51449e-06)
(0.000299695 -1.8331e-05 -1.54625e-06)
(0.0003032 -2.70112e-05 -1.57223e-06)
(0.000309233 -3.95037e-05 -1.56078e-06)
(0.000317375 -5.7638e-05 -1.57488e-06)
(0.000312446 -7.22092e-05 -1.70977e-06)
(0.000208487 -3.05177e-05 -9.24173e-07)
(0.000296289 -1.46645e-06 -4.47693e-06)
(0.000296528 -4.51034e-06 -4.51033e-06)
(0.000297044 -8.00144e-06 -4.57253e-06)
(0.000298039 -1.23968e-05 -4.65985e-06)
(0.00029992 -1.84066e-05 -4.76051e-06)
(0.000303394 -2.70629e-05 -4.84727e-06)
(0.000309376 -3.95821e-05 -4.85157e-06)
(0.000317588 -5.79775e-05 -4.80995e-06)
(0.00031269 -7.2119e-05 -4.71912e-06)
(0.000207668 -3.02519e-05 -2.76031e-06)
(0.000296806 -1.48672e-06 -7.95118e-06)
(0.000297044 -4.57253e-06 -8.00143e-06)
(0.000297556 -8.1056e-06 -8.10558e-06)
(0.000298544 -1.25376e-05 -8.25583e-06)
(0.000300413 -1.85707e-05 -8.43302e-06)
(0.000303864 -2.72173e-05 -8.59549e-06)
(0.000309822 -3.97075e-05 -8.65751e-06)
(0.000318061 -5.81125e-05 -8.49893e-06)
(0.000313158 -7.20866e-05 -7.77948e-06)
(0.00020779 -3.01703e-05 -4.81956e-06)
(0.000297806 -1.51448e-06 -1.23301e-05)
(0.000298039 -4.65984e-06 -1.23968e-05)
(0.000298544 -8.25585e-06 -1.25376e-05)
(0.00029952 -1.27458e-05 -1.27458e-05)
(0.000301371 -1.88215e-05 -1.30008e-05)
(0.000304797 -2.74752e-05 -1.32502e-05)
(0.000310726 -3.99207e-05 -1.33803e-05)
(0.000318956 -5.82364e-05 -1.31524e-05)
(0.000314044 -7.20948e-05 -1.19309e-05)
(0.000208429 -3.01429e-05 -7.45793e-06)
(0.000299695 -1.54624e-06 -1.8331e-05)
(0.00029992 -4.76052e-06 -1.84067e-05)
(0.000300413 -8.43306e-06 -1.85708e-05)
(0.000301371 -1.30008e-05 -1.88216e-05)
(0.000303193 -1.91452e-05 -1.91453e-05)
(0.000306576 -2.78344e-05 -1.94882e-05)
(0.000312452 -4.0246e-05 -1.97074e-05)
(0.000320637 -5.84374e-05 -1.9435e-05)
(0.000315681 -7.21681e-05 -1.76543e-05)
(0.00020964 -3.01449e-05 -1.10387e-05)
(0.0003032 -1.57226e-06 -2.70112e-05)
(0.000303394 -4.84735e-06 -2.70629e-05)
(0.000303864 -8.59555e-06 -2.72174e-05)
(0.000304797 -1.32502e-05 -2.74753e-05)
(0.000306576 -1.9488e-05 -2.78345e-05)
(0.00030989 -2.82546e-05 -2.82547e-05)
(0.000315671 -4.06777e-05 -2.85789e-05)
(0.000323747 -5.87545e-05 -2.82907e-05)
(0.000318652 -7.23278e-05 -2.5795e-05)
(0.0002118 -3.01647e-05 -1.60652e-05)
(0.000309233 -1.56082e-06 -3.95037e-05)
(0.000309376 -4.85165e-06 -3.9582e-05)
(0.000309822 -8.65757e-06 -3.97074e-05)
(0.000310726 -1.33803e-05 -3.99206e-05)
(0.000312452 -1.97073e-05 -4.02459e-05)
(0.000315671 -2.85788e-05 -4.06776e-05)
(0.000321305 -4.10865e-05 -4.10864e-05)
(0.000329198 -5.91392e-05 -4.0847e-05)
(0.000323823 -7.2575e-05 -3.75097e-05)
(0.000215534 -3.01532e-05 -2.32048e-05)
(0.000317375 -1.57489e-06 -5.76379e-05)
(0.000317588 -4.80995e-06 -5.79774e-05)
(0.000318061 -8.49893e-06 -5.81123e-05)
(0.000318956 -1.31524e-05 -5.82362e-05)
(0.000320637 -1.94349e-05 -5.84372e-05)
(0.000323747 -2.82906e-05 -5.87543e-05)
(0.000329198 -4.08471e-05 -5.91391e-05)
(0.000336902 -5.90332e-05 -5.9033e-05)
(0.000331382 -7.26684e-05 -5.49123e-05)
(0.000221412 -3.04119e-05 -3.39752e-05)
(0.000312446 -1.70974e-06 -7.22092e-05)
(0.00031269 -4.71908e-06 -7.2119e-05)
(0.000313158 -7.77947e-06 -7.20866e-05)
(0.000314044 -1.19309e-05 -7.20948e-05)
(0.000315681 -1.76543e-05 -7.21681e-05)
(0.000318652 -2.5795e-05 -7.23278e-05)
(0.000323823 -3.75097e-05 -7.2575e-05)
(0.000331382 -5.49124e-05 -7.26684e-05)
(0.000327682 -6.8851e-05 -6.8851e-05)
(0.000223788 -3.04901e-05 -4.37811e-05)
(0.000208487 -9.24165e-07 -3.05177e-05)
(0.000207668 -2.76029e-06 -3.02519e-05)
(0.00020779 -4.81955e-06 -3.01703e-05)
(0.000208429 -7.45791e-06 -3.01429e-05)
(0.00020964 -1.10387e-05 -3.01449e-05)
(0.0002118 -1.60652e-05 -3.01647e-05)
(0.000215534 -2.32048e-05 -3.01533e-05)
(0.000221412 -3.39753e-05 -3.04119e-05)
(0.000223788 -4.37812e-05 -3.04901e-05)
(0.000167752 -1.88387e-05 -1.88387e-05)
(0.000303782 -2.31742e-06 -2.31742e-06)
(0.000304397 -7.11346e-06 -2.33689e-06)
(0.000305789 -1.25218e-05 -2.37022e-06)
(0.000308354 -1.90854e-05 -2.41523e-06)
(0.000312765 -2.75127e-05 -2.46403e-06)
(0.000319803 -3.85072e-05 -2.50292e-06)
(0.000328865 -5.16168e-05 -2.49227e-06)
(0.00033225 -6.34561e-05 -2.40942e-06)
(0.000301178 -6.15405e-05 -2.22014e-06)
(0.000166397 -1.75834e-05 -1.16241e-06)
(0.000304397 -2.33688e-06 -7.11346e-06)
(0.00030501 -7.16749e-06 -7.1675e-06)
(0.000306393 -1.26062e-05 -7.26741e-06)
(0.000308944 -1.91981e-05 -7.40357e-06)
(0.000313336 -2.76462e-05 -7.55086e-06)
(0.000320346 -3.8631e-05 -7.66311e-06)
(0.000329378 -5.17217e-05 -7.63749e-06)
(0.000332854 -6.36615e-05 -7.35114e-06)
(0.000302025 -6.15649e-05 -6.52493e-06)
(0.000166778 -1.75529e-05 -3.51198e-06)
(0.000305789 -2.37022e-06 -1.25218e-05)
(0.000306393 -7.2674e-06 -1.26062e-05)
(0.000307763 -1.27708e-05 -1.27708e-05)
(0.000310291 -1.94192e-05 -1.29998e-05)
(0.000314651 -2.79036e-05 -1.32531e-05)
(0.000321621 -3.8881e-05 -1.345e-05)
(0.000330622 -5.19162e-05 -1.34332e-05)
(0.000334131 -6.38109e-05 -1.29121e-05)
(0.000303334 -6.16073e-05 -1.11776e-05)
(0.000167589 -1.75545e-05 -6.12709e-06)
(0.000308354 -2.41522e-06 -1.90854e-05)
(0.000308944 -7.40357e-06 -1.91982e-05)
(0.000310291 -1.29998e-05 -1.94193e-05)
(0.000312782 -1.97358e-05 -1.97359e-05)
(0.000317089 -2.82864e-05 -2.01039e-05)
(0.000323994 -3.92807e-05 -2.04162e-05)
(0.000332938 -5.2261e-05 -2.0448e-05)
(0.000336429 -6.4046e-05 -1.97122e-05)
(0.000305551 -6.17209e-05 -1.701e-05)
(0.000169016 -1.7573e-05 -9.32247e-06)
(0.000312765 -2.46404e-06 -2.75127e-05)
(0.000313336 -7.5509e-06 -2.76463e-05)
(0.000314651 -1.32532e-05 -2.79037e-05)
(0.000317089 -2.01038e-05 -2.82865e-05)
(0.000321315 -2.8762e-05 -2.87621e-05)
(0.000328115 -3.98261e-05 -2.92148e-05)
(0.000336953 -5.27962e-05 -2.93467e-05)
(0.000340365 -6.44682e-05 -2.84134e-05)
(0.000309259 -6.19888e-05 -2.45462e-05)
(0.000171374 -1.7644e-05 -1.33735e-05)
(0.000319803 -2.50299e-06 -3.85072e-05)
(0.000320346 -7.66321e-06 -3.8631e-05)
(0.000321621 -1.34501e-05 -3.8881e-05)
(0.000323994 -2.04162e-05 -3.92807e-05)
(0.000328115 -2.92147e-05 -3.98261e-05)
(0.000334768 -4.04231e-05 -4.04231e-05)
(0.000343449 -5.34929e-05 -4.07197e-05)
(0.000346708 -6.51395e-05 -3.96491e-05)
(0.000315158 -6.2491e-05 -3.43685e-05)
(0.000175072 -1.77984e-05 -1.85531e-05)
(0.000328865 -2.49231e-06 -5.16167e-05)
(0.000329378 -7.63754e-06 -5.17215e-05)
(0.000330622 -1.34332e-05 -5.19159e-05)
(0.000332938 -2.04479e-05 -5.22607e-05)
(0.000336954 -2.93466e-05 -5.2796e-05)
(0.000343449 -4.07197e-05 -5.34927e-05)
(0.00035197 -5.4015e-05 -5.40148e-05)
(0.00035512 -6.58541e-05 -5.30005e-05)
(0.000323117 -6.31686e-05 -4.63039e-05)
(0.000180193 -1.80271e-05 -2.47516e-05)
(0.00033225 -2.40938e-06 -6.3456e-05)
(0.000332854 -7.35108e-06 -6.36613e-05)
(0.000334131 -1.2912e-05 -6.38107e-05)
(0.000336429 -1.97122e-05 -6.40458e-05)
(0.000340365 -2.84133e-05 -6.4468e-05)
(0.000346708 -3.96491e-05 -6.51393e-05)
(0.00035512 -5.30007e-05 -6.58539e-05)
(0.000358606 -6.52548e-05 -6.52546e-05)
(0.000327653 -6.32088e-05 -5.80077e-05)
(0.000184588 -1.83826e-05 -3.10861e-05)
(0.000301178 -2.22009e-06 -6.15404e-05)
(0.000302025 -6.52485e-06 -6.15649e-05)
(0.000303334 -1.11776e-05 -6.16073e-05)
(0.000305551 -1.70099e-05 -6.17209e-05)
(0.000309259 -2.45462e-05 -6.19888e-05)
(0.000315158 -3.43685e-05 -6.2491e-05)
(0.000323117 -4.6304e-05 -6.31686e-05)
(0.000327653 -5.80078e-05 -6.32087e-05)
(0.000303578 -5.78251e-05 -5.78251e-05)
(0.000177373 -1.80275e-05 -3.21811e-05)
(0.000166397 -1.1624e-06 -1.75834e-05)
(0.000166778 -3.51196e-06 -1.75529e-05)
(0.000167589 -6.12707e-06 -1.75546e-05)
(0.000169016 -9.32245e-06 -1.7573e-05)
(0.000171374 -1.33735e-05 -1.7644e-05)
(0.000175072 -1.85531e-05 -1.77985e-05)
(0.000180193 -2.47517e-05 -1.80272e-05)
(0.000184588 -3.10862e-05 -1.83826e-05)
(0.000177373 -3.21811e-05 -1.80275e-05)
(0.000116954 -9.47683e-06 -9.47682e-06)
(0.000314819 -3.00462e-06 -3.00462e-06)
(0.000315908 -9.18256e-06 -3.03065e-06)
(0.000318316 -1.59901e-05 -3.07578e-06)
(0.000322523 -2.39071e-05 -3.13471e-06)
(0.000329098 -3.33663e-05 -3.19285e-06)
(0.000337894 -4.43147e-05 -3.22652e-06)
(0.000345138 -5.46724e-05 -3.1857e-06)
(0.000336557 -5.83399e-05 -2.98268e-06)
(0.000280084 -4.55e-05 -2.47371e-06)
(0.000132324 -8.90037e-06 -1.1628e-06)
(0.000315908 -3.03065e-06 -9.18257e-06)
(0.000316992 -9.2561e-06 -9.25611e-06)
(0.000319387 -1.61061e-05 -9.39015e-06)
(0.000323574 -2.40605e-05 -9.56713e-06)
(0.000330124 -3.3544e-05 -9.74428e-06)
(0.0003389 -4.44868e-05 -9.84669e-06)
(0.000346136 -5.47996e-05 -9.73084e-06)
(0.000337596 -5.84489e-05 -9.13201e-06)
(0.000281198 -4.55075e-05 -7.53784e-06)
(0.000132897 -8.85016e-06 -3.64612e-06)
(0.000318316 -3.07578e-06 -1.59901e-05)
(0.000319387 -9.39014e-06 -1.61061e-05)
(0.000321756 -1.63262e-05 -1.63262e-05)
(0.000325902 -2.43571e-05 -1.66244e-05)
(0.0003324 -3.38926e-05 -1.69357e-05)
(0.000341124 -4.48403e-05 -1.71319e-05)
(0.000348329 -5.50976e-05 -1.69706e-05)
(0.000339788 -5.86688e-05 -1.59749e-05)
(0.00028327 -4.56202e-05 -1.31416e-05)
(0.000134066 -8.85518e-06 -6.45988e-06)
(0.000322523 -3.13471e-06 -2.39071e-05)
(0.000323574 -9.56714e-06 -2.40605e-05)
(0.000325902 -1.66244e-05 -2.43571e-05)
(0.000329984 -2.47753e-05 -2.47753e-05)
(0.000336396 -3.44105e-05 -2.52416e-05)
(0.000345027 -4.54074e-05 -2.55822e-05)
(0.000352165 -5.56349e-05 -2.54323e-05)
(0.000343571 -5.90995e-05 -2.40257e-05)
(0.000286734 -4.58891e-05 -1.97511e-05)
(0.000136022 -8.90626e-06 -9.67681e-06)
(0.000329098 -3.19287e-06 -3.33663e-05)
(0.000330124 -9.7443e-06 -3.35441e-05)
(0.0003324 -1.69357e-05 -3.38927e-05)
(0.000336396 -2.52415e-05 -3.44106e-05)
(0.000342688 -3.50383e-05 -3.50384e-05)
(0.000351188 -4.61719e-05 -3.5578e-05)
(0.000358215 -5.64592e-05 -3.55253e-05)
(0.000349486 -5.98493e-05 -3.37177e-05)
(0.000292049 -4.64099e-05 -2.77253e-05)
(0.000138977 -9.02241e-06 -1.34579e-05)
(0.000337894 -3.22656e-06 -4.43147e-05)
(0.0003389 -9.84674e-06 -4.44868e-05)
(0.000341124 -1.71319e-05 -4.48403e-05)
(0.000345027 -2.55821e-05 -4.54073e-05)
(0.000351188 -3.5578e-05 -4.61719e-05)
(0.000359538 -4.6953e-05 -4.6953e-05)
(0.000366444 -5.74671e-05 -4.71187e-05)
(0.000357543 -6.09291e-05 -4.50078e-05)
(0.000299259 -4.72461e-05 -3.70863e-05)
(0.000142971 -9.23495e-06 -1.78044e-05)
(0.000345139 -3.18572e-06 -5.46723e-05)
(0.000346136 -9.73083e-06 -5.47994e-05)
(0.000348329 -1.69705e-05 -5.50974e-05)
(0.000352165 -2.54323e-05 -5.56346e-05)
(0.000358215 -3.55252e-05 -5.6459e-05)
(0.000366444 -4.71188e-05 -5.74669e-05)
(0.000373328 -5.79846e-05 -5.79844e-05)
(0.000364551 -6.17984e-05 -5.58849e-05)
(0.000305969 -4.81222e-05 -4.63594e-05)
(0.000147073 -9.51705e-06 -2.20797e-05)
(0.000336557 -2.98264e-06 -5.83398e-05)
(0.000337596 -9.13193e-06 -5.84488e-05)
(0.000339788 -1.59748e-05 -5.86686e-05)
(0.000343571 -2.40257e-05 -5.90993e-05)
(0.000349486 -3.37177e-05 -5.98492e-05)
(0.000357543 -4.50079e-05 -6.0929e-05)
(0.000364551 -5.58851e-05 -6.17982e-05)
(0.000357044 -6.02936e-05 -6.02934e-05)
(0.000301761 -4.76491e-05 -5.08661e-05)
(0.00014721 -9.71667e-06 -2.44252e-05)
(0.000280084 -2.47368e-06 -4.55e-05)
(0.000281198 -7.53778e-06 -4.55075e-05)
(0.00028327 -1.31415e-05 -4.56202e-05)
(0.000286734 -1.97511e-05 -4.58891e-05)
(0.000292049 -2.77253e-05 -4.64099e-05)
(0.000299259 -3.70864e-05 -4.72461e-05)
(0.000305969 -4.63595e-05 -4.81222e-05)
(0.000301761 -5.08662e-05 -4.7649e-05)
(0.000259541 -4.1542e-05 -4.1542e-05)
(0.000132271 -9.18765e-06 -2.09633e-05)
(0.000132323 -1.16279e-06 -8.90036e-06)
(0.000132896 -3.6461e-06 -8.85017e-06)
(0.000134065 -6.45986e-06 -8.85519e-06)
(0.000136022 -9.67679e-06 -8.90628e-06)
(0.000138977 -1.34579e-05 -9.02243e-06)
(0.000142971 -1.78044e-05 -9.23498e-06)
(0.000147073 -2.20798e-05 -9.51706e-06)
(0.00014721 -2.44252e-05 -9.71666e-06)
(0.000132271 -2.09633e-05 -9.18765e-06)
(7.69728e-05 -4.42437e-06 -4.42437e-06)
(0.000328181 -3.49212e-06 -3.49212e-06)
(0.000329729 -1.06274e-05 -3.52358e-06)
(0.000333058 -1.83003e-05 -3.57921e-06)
(0.000338551 -2.68182e-05 -3.65002e-06)
(0.00034627 -3.6207e-05 -3.71471e-06)
(0.000354505 -4.5595e-05 -3.73805e-06)
(0.000356318 -5.18776e-05 -3.65719e-06)
(0.000334426 -4.89669e-05 -3.35226e-06)
(0.000260983 -3.18395e-05 -2.63576e-06)
(0.000112643 -4.69225e-06 -1.18314e-06)
(0.000329729 -3.52357e-06 -1.06274e-05)
(0.000331271 -1.07183e-05 -1.07183e-05)
(0.000334582 -1.84465e-05 -1.08848e-05)
(0.000340049 -2.70131e-05 -1.11e-05)
(0.000347738 -3.64345e-05 -1.13024e-05)
(0.000355951 -4.58281e-05 -1.13838e-05)
(0.000357754 -5.20758e-05 -1.11515e-05)
(0.000335837 -4.91183e-05 -1.02447e-05)
(0.000262252 -3.19171e-05 -8.05001e-06)
(0.000113223 -4.68881e-06 -3.61949e-06)
(0.000333058 -3.57921e-06 -1.83004e-05)
(0.000334582 -1.08848e-05 -1.84466e-05)
(0.000337857 -1.87234e-05 -1.87234e-05)
(0.00034327 -2.73929e-05 -1.90925e-05)
(0.000350895 -3.68931e-05 -1.94604e-05)
(0.000359052 -4.6319e-05 -1.96425e-05)
(0.000360819 -5.25323e-05 -1.92949e-05)
(0.000338828 -4.948e-05 -1.77743e-05)
(0.000264869 -3.21261e-05 -1.39494e-05)
(0.000114542 -4.71186e-06 -6.25648e-06)
(0.000338551 -3.65003e-06 -2.68182e-05)
(0.000340049 -1.11e-05 -2.70131e-05)
(0.00034327 -1.90925e-05 -2.73929e-05)
(0.000348603 -2.79227e-05 -2.79227e-05)
(0.000356131 -3.75714e-05 -2.8493e-05)
(0.000364198 -4.7099e-05 -2.88465e-05)
(0.000365893 -5.33216e-05 -2.84528e-05)
(0.000343742 -5.01505e-05 -2.62905e-05)
(0.000269099 -3.25411e-05 -2.0602e-05)
(0.000116675 -4.77751e-06 -9.16734e-06)
(0.00034627 -3.71472e-06 -3.6207e-05)
(0.000347738 -1.13024e-05 -3.64345e-05)
(0.000350895 -1.94604e-05 -3.68931e-05)
(0.000356131 -2.84929e-05 -3.75714e-05)
(0.000363543 -3.83714e-05 -3.83714e-05)
(0.000371502 -4.81186e-05 -3.89826e-05)
(0.000373095 -5.44693e-05 -3.86566e-05)
(0.000350674 -5.12181e-05 -3.58722e-05)
(0.000274982 -3.32471e-05 -2.80802e-05)
(0.000119609 -4.9055e-06 -1.23664e-05)
(0.000354505 -3.73806e-06 -4.5595e-05)
(0.000355951 -1.13838e-05 -4.58281e-05)
(0.000359052 -1.96424e-05 -4.6319e-05)
(0.000364198 -2.88465e-05 -4.7099e-05)
(0.000371502 -3.89826e-05 -4.81185e-05)
(0.000379371 -4.90603e-05 -4.90603e-05)
(0.00038091 -5.57233e-05 -4.89657e-05)
(0.000358267 -5.25557e-05 -4.57207e-05)
(0.000281481 -3.42238e-05 -3.58221e-05)
(0.000122917 -5.11478e-06 -1.56343e-05)
(0.000356318 -3.65719e-06 -5.18775e-05)
(0.000357754 -1.11515e-05 -5.20757e-05)
(0.000360819 -1.92949e-05 -5.25322e-05)
(0.000365893 -2.84528e-05 -5.33215e-05)
(0.000373095 -3.86566e-05 -5.44692e-05)
(0.00038091 -4.89658e-05 -5.57231e-05)
(0.000382605 -5.60285e-05 -5.60284e-05)
(0.000360442 -5.32661e-05 -5.27864e-05)
(0.000284126 -3.49895e-05 -4.16017e-05)
(0.000124925 -5.36388e-06 -1.81284e-05)
(0.000334426 -3.35225e-06 -4.89669e-05)
(0.000335837 -1.02446e-05 -4.91182e-05)
(0.000338828 -1.77743e-05 -4.948e-05)
(0.000343741 -2.62904e-05 -5.01504e-05)
(0.000350674 -3.58722e-05 -5.12181e-05)
(0.000358267 -4.57208e-05 -5.25556e-05)
(0.000360442 -5.27865e-05 -5.3266e-05)
(0.000340872 -5.08327e-05 -5.08327e-05)
(0.000270831 -3.40179e-05 -4.072e-05)
(0.000121194 -5.4717e-06 -1.80751e-05)
(0.000260983 -2.63576e-06 -3.18395e-05)
(0.000262252 -8.04999e-06 -3.19171e-05)
(0.000264869 -1.39494e-05 -3.2126e-05)
(0.000269099 -2.06019e-05 -3.25411e-05)
(0.000274982 -2.80802e-05 -3.32471e-05)
(0.000281481 -3.58222e-05 -3.42237e-05)
(0.000284126 -4.16018e-05 -3.49894e-05)
(0.000270831 -4.07201e-05 -3.40179e-05)
(0.000219304 -2.82695e-05 -2.82694e-05)
(0.000102949 -5.06124e-06 -1.34028e-05)
(0.000112643 -1.18314e-06 -4.69224e-06)
(0.000113223 -3.61948e-06 -4.6888e-06)
(0.000114542 -6.25646e-06 -4.71184e-06)
(0.000116675 -9.16733e-06 -4.77749e-06)
(0.000119609 -1.23664e-05 -4.90548e-06)
(0.000122917 -1.56343e-05 -5.11476e-06)
(0.000124925 -1.81284e-05 -5.36386e-06)
(0.000121194 -1.80751e-05 -5.47169e-06)
(0.000102949 -1.34028e-05 -5.06124e-06)
(5.53404e-05 -2.48644e-06 -2.48644e-06)
(0.000343061 -3.79234e-06 -3.79234e-06)
(0.000344987 -1.14888e-05 -3.82945e-06)
(0.000349004 -1.95516e-05 -3.89638e-06)
(0.000355222 -2.80563e-05 -3.9801e-06)
(0.000362916 -3.66073e-05 -4.05258e-06)
(0.000368689 -4.37223e-05 -4.06604e-06)
(0.000363388 -4.60721e-05 -3.94011e-06)
(0.000329662 -3.90813e-05 -3.53413e-06)
(0.000246013 -2.18683e-05 -2.65567e-06)
(0.000100886 -2.53041e-06 -1.11587e-06)
(0.000344987 -3.82945e-06 -1.14888e-05)
(0.000346903 -1.15985e-05 -1.15985e-05)
(0.0003509 -1.97319e-05 -1.18007e-05)
(0.000357091 -2.83015e-05 -1.20577e-05)
(0.000364754 -3.69014e-05 -1.22877e-05)
(0.000370504 -4.40373e-05 -1.23442e-05)
(0.000365181 -4.63629e-05 -1.1976e-05)
(0.000331374 -3.93079e-05 -1.07545e-05)
(0.000247444 -2.20056e-05 -8.07236e-06)
(0.000101548 -2.56296e-06 -3.36248e-06)
(0.000349004 -3.89639e-06 -1.95516e-05)
(0.0003509 -1.18007e-05 -1.97319e-05)
(0.000354856 -2.0073e-05 -2.00731e-05)
(0.000360991 -2.87788e-05 -2.0521e-05)
(0.000368595 -3.74935e-05 -2.0948e-05)
(0.000374295 -4.46943e-05 -2.11022e-05)
(0.000368914 -4.70001e-05 -2.05297e-05)
(0.00033492 -3.98196e-05 -1.84669e-05)
(0.00025036 -2.2295e-05 -1.38321e-05)
(0.000102911 -2.60461e-06 -5.70514e-06)
(0.000355222 -3.98012e-06 -2.80563e-05)
(0.000357091 -1.20577e-05 -2.83015e-05)
(0.000360991 -2.0521e-05 -2.87788e-05)
(0.000367051 -2.9435e-05 -2.9435e-05)
(0.000374575 -3.83545e-05 -3.01128e-05)
(0.000380203 -4.57102e-05 -3.04528e-05)
(0.000374718 -4.8048e-05 -2.9754e-05)
(0.000340387 -4.07036e-05 -2.68253e-05)
(0.000254785 -2.2812e-05 -2.00424e-05)
(0.000104958 -2.68037e-06 -8.19217e-06)
(0.000362916 -4.05258e-06 -3.66073e-05)
(0.000364754 -1.22877e-05 -3.69014e-05)
(0.000368595 -2.0948e-05 -3.74934e-05)
(0.000374575 -3.01128e-05 -3.83545e-05)
(0.000382018 -3.93276e-05 -3.93275e-05)
(0.000387577 -4.69691e-05 -3.99611e-05)
(0.000381968 -4.94627e-05 -3.92692e-05)
(0.00034718 -4.19838e-05 -3.55298e-05)
(0.000260217 -2.36034e-05 -2.64945e-05)
(0.00010746 -2.81112e-06 -1.07362e-05)
(0.000368689 -4.06604e-06 -4.37223e-05)
(0.000370504 -1.23442e-05 -4.40373e-05)
(0.000374295 -2.11021e-05 -4.46943e-05)
(0.000380203 -3.04528e-05 -4.57102e-05)
(0.000387577 -3.99612e-05 -4.6969e-05)
(0.000393105 -4.79769e-05 -4.79769e-05)
(0.000387481 -5.07976e-05 -4.74842e-05)
(0.000352471 -4.33588e-05 -4.32026e-05)
(0.000264582 -2.45521e-05 -3.2234e-05)
(0.000109619 -3.00364e-06 -1.30073e-05)
(0.000363388 -3.94011e-06 -4.60721e-05)
(0.000365181 -1.1976e-05 -4.63629e-05)
(0.000368914 -2.05296e-05 -4.7e-05)
(0.000374718 -2.97541e-05 -4.80479e-05)
(0.000381968 -3.92692e-05 -4.94626e-05)
(0.000387481 -4.74842e-05 -5.07975e-05)
(0.000382221 -5.07009e-05 -5.07009e-05)
(0.000348276 -4.3704e-05 -4.65272e-05)
(0.000262246 -2.50791e-05 -3.49326e-05)
(0.000109431 -3.20947e-06 -1.41968e-05)
(0.000329662 -3.53413e-06 -3.90813e-05)
(0.000331374 -1.07545e-05 -3.93078e-05)
(0.00033492 -1.84669e-05 -3.98195e-05)
(0.000340387 -2.68253e-05 -4.07036e-05)
(0.00034718 -3.55298e-05 -4.19837e-05)
(0.000352471 -4.32027e-05 -4.33587e-05)
(0.000348276 -4.65273e-05 -4.3704e-05)
(0.000318594 -4.06412e-05 -4.06412e-05)
(0.000241889 -2.38588e-05 -3.10562e-05)
(0.0001029 -3.27273e-06 -1.30092e-05)
(0.000246013 -2.65568e-06 -2.18683e-05)
(0.000247444 -8.07235e-06 -2.20055e-05)
(0.00025036 -1.38321e-05 -2.22949e-05)
(0.000254785 -2.00423e-05 -2.28119e-05)
(0.000260217 -2.64945e-05 -2.36034e-05)
(0.000264582 -3.2234e-05 -2.4552e-05)
(0.000262246 -3.49326e-05 -2.50791e-05)
(0.000241889 -3.10562e-05 -2.38587e-05)
(0.000187348 -1.90248e-05 -1.90248e-05)
(8.36947e-05 -2.9781e-06 -8.64323e-06)
(0.000100886 -1.11587e-06 -2.5304e-06)
(0.000101548 -3.36248e-06 -2.56295e-06)
(0.000102911 -5.70513e-06 -2.6046e-06)
(0.000104958 -8.19217e-06 -2.68036e-06)
(0.00010746 -1.07362e-05 -2.81111e-06)
(0.000109619 -1.30073e-05 -3.00364e-06)
(0.000109431 -1.41968e-05 -3.20947e-06)
(0.0001029 -1.30092e-05 -3.27273e-06)
(8.36947e-05 -8.64323e-06 -2.9781e-06)
(4.25866e-05 -1.47361e-06 -1.47361e-06)
(0.000358751 -3.93069e-06 -3.93069e-06)
(0.000360937 -1.18495e-05 -3.9744e-06)
(0.000365341 -1.99167e-05 -4.05396e-06)
(0.000371663 -2.79679e-05 -4.15161e-06)
(0.000378276 -3.52662e-05 -4.23141e-06)
(0.000380353 -4.00432e-05 -4.23172e-06)
(0.000367653 -3.93633e-05 -4.05368e-06)
(0.000324375 -3.05024e-05 -3.54546e-06)
(0.000234757 -1.51307e-05 -2.54074e-06)
(9.3439e-05 -1.39238e-06 -9.8656e-07)
(0.000360937 -3.9744e-06 -1.18495e-05)
(0.000363114 -1.19807e-05 -1.19807e-05)
(0.000367499 -2.01358e-05 -1.22225e-05)
(0.000373798 -2.82707e-05 -1.2524e-05)
(0.000380387 -3.56361e-05 -1.2779e-05)
(0.00038244 -4.04468e-05 -1.27982e-05)
(0.000369693 -3.97429e-05 -1.22734e-05)
(0.000326263 -3.07928e-05 -1.07425e-05)
(0.000236245 -1.52996e-05 -7.69353e-06)
(9.40991e-05 -1.4305e-06 -2.96178e-06)
(0.000365341 -4.05396e-06 -1.99167e-05)
(0.000367499 -1.22225e-05 -2.01358e-05)
(0.000371849 -2.05479e-05 -2.05479e-05)
(0.000378104 -2.8855e-05 -2.10785e-05)
(0.00038465 -3.63718e-05 -2.15574e-05)
(0.000386656 -4.1273e-05 -2.16574e-05)
(0.000373799 -4.05472e-05 -2.0825e-05)
(0.000330032 -3.14267e-05 -1.82474e-05)
(0.000239164 -1.56432e-05 -1.30422e-05)
(9.53712e-05 -1.47985e-06 -4.97445e-06)
(0.000371663 -4.15162e-06 -2.79679e-05)
(0.000373798 -1.2524e-05 -2.82707e-05)
(0.000378105 -2.10785e-05 -2.8855e-05)
(0.000384309 -2.96409e-05 -2.96408e-05)
(0.000390804 -3.74125e-05 -3.04092e-05)
(0.000392746 -4.25038e-05 -3.06878e-05)
(0.000379711 -4.18043e-05 -2.96324e-05)
(0.000335402 -3.2457e-05 -2.60062e-05)
(0.00024325 -1.62161e-05 -1.85369e-05)
(9.71298e-05 -1.56166e-06 -7.0198e-06)
(0.000378276 -4.23142e-06 -3.52662e-05)
(0.000380387 -1.27789e-05 -3.56361e-05)
(0.00038465 -2.15574e-05 -3.63717e-05)
(0.000390804 -3.04092e-05 -3.74124e-05)
(0.000397258 -3.85201e-05 -3.85201e-05)
(0.000399146 -4.39255e-05 -3.90917e-05)
(0.000385924 -4.33657e-05 -3.79626e-05)
(0.000341009 -3.38163e-05 -3.34116e-05)
(0.000247464 -1.70153e-05 -2.377e-05)
(9.89559e-05 -1.6905e-06 -8.95884e-06)
(0.000380353 -4.23172e-06 -4.00432e-05)
(0.00038244 -1.27982e-05 -4.04468e-05)
(0.000386656 -2.16573e-05 -4.1273e-05)
(0.000392746 -3.06878e-05 -4.25037e-05)
(0.000399146 -3.90917e-05 -4.39255e-05)
(0.000401025 -4.48629e-05 -4.48629e-05)
(0.000387823 -4.45984e-05 -4.38831e-05)
(0.000342845 -3.50535e-05 -3.88153e-05)
(0.000248995 -1.78484e-05 -2.76495e-05)
(9.98267e-05 -1.86158e-06 -1.0445e-05)
(0.000367653 -4.05369e-06 -3.93633e-05)
(0.000369693 -1.22734e-05 -3.97428e-05)
(0.000373799 -2.0825e-05 -4.05471e-05)
(0.000379711 -2.96324e-05 -4.18042e-05)
(0.000385924 -3.79627e-05 -4.33656e-05)
(0.000387823 -4.38831e-05 -4.45983e-05)
(0.00037529 -4.40119e-05 -4.40118e-05)
(0.000332224 -3.49837e-05 -3.92567e-05)
(0.000241959 -1.81344e-05 -2.81862e-05)
(9.77185e-05 -2.02212e-06 -1.08211e-05)
(0.000324375 -3.54546e-06 -3.05024e-05)
(0.000326263 -1.07425e-05 -3.07927e-05)
(0.000330032 -1.82474e-05 -3.14266e-05)
(0.000335402 -2.60062e-05 -3.2457e-05)
(0.000341009 -3.34116e-05 -3.38162e-05)
(0.000342845 -3.88153e-05 -3.50534e-05)
(0.000332224 -3.92567e-05 -3.49836e-05)
(0.00029522 -3.16448e-05 -3.16448e-05)
(0.000216854 -1.68507e-05 -2.31889e-05)
(8.93442e-05 -2.04591e-06 -9.26959e-06)
(0.000234757 -2.54074e-06 -1.51307e-05)
(0.000236245 -7.69352e-06 -1.52995e-05)
(0.000239164 -1.30422e-05 -1.56432e-05)
(0.00024325 -1.85369e-05 -1.6216e-05)
(0.000247464 -2.377e-05 -1.70152e-05)
(0.000248995 -2.76495e-05 -1.78483e-05)
(0.000241959 -2.81862e-05 -1.81344e-05)
(0.000216854 -2.31889e-05 -1.68507e-05)
(0.000162565 -1.29552e-05 -1.29552e-05)
(7.02566e-05 -1.81409e-06 -5.66859e-06)
(9.3439e-05 -9.86563e-07 -1.39238e-06)
(9.40991e-05 -2.96179e-06 -1.4305e-06)
(9.53712e-05 -4.97445e-06 -1.47985e-06)
(9.71298e-05 -7.01979e-06 -1.56166e-06)
(9.89559e-05 -8.95884e-06 -1.6905e-06)
(9.98268e-05 -1.0445e-05 -1.86158e-06)
(9.77186e-05 -1.08211e-05 -2.02212e-06)
(8.93442e-05 -9.26959e-06 -2.04592e-06)
(7.02566e-05 -5.66859e-06 -1.81409e-06)
(3.43263e-05 -8.78547e-07 -8.7855e-07)
(0.000374648 -3.93903e-06 -3.93903e-06)
(0.00037696 -1.18137e-05 -3.9899e-06)
(0.000381429 -1.96055e-05 -4.08248e-06)
(0.000387277 -2.69404e-05 -4.19341e-06)
(0.000392013 -3.28652e-05 -4.27743e-06)
(0.000389802 -3.5614e-05 -4.2588e-06)
(0.000370233 -3.29404e-05 -4.02415e-06)
(0.000319643 -2.36863e-05 -3.42412e-06)
(0.000226614 -1.06928e-05 -2.34094e-06)
(8.87207e-05 -8.00984e-07 -8.4196e-07)
(0.00037696 -3.9899e-06 -1.18137e-05)
(0.000379266 -1.19678e-05 -1.19678e-05)
(0.000383723 -1.98653e-05 -1.22501e-05)
(0.000389556 -2.73021e-05 -1.25935e-05)
(0.000394276 -3.331e-05 -1.28632e-05)
(0.000392034 -3.61001e-05 -1.28267e-05)
(0.000372376 -3.33957e-05 -1.21324e-05)
(0.000321548 -2.4027e-05 -1.03283e-05)
(0.000228023 -1.08805e-05 -7.05963e-06)
(8.93052e-05 -8.37587e-07 -2.52049e-06)
(0.000381429 -4.08248e-06 -1.96055e-05)
(0.000383723 -1.22501e-05 -1.98653e-05)
(0.000388158 -2.03489e-05 -2.03489e-05)
(0.000393969 -2.79911e-05 -2.09554e-05)
(0.000398662 -3.41794e-05 -2.14648e-05)
(0.000396357 -3.70728e-05 -2.14751e-05)
(0.000376506 -3.43308e-05 -2.0363e-05)
(0.000325184 -2.47456e-05 -1.73465e-05)
(0.000230669 -1.12571e-05 -1.18374e-05)
(9.03814e-05 -8.90159e-07 -4.19589e-06)
(0.000387277 -4.19341e-06 -2.69404e-05)
(0.000389556 -1.25935e-05 -2.73021e-05)
(0.000393969 -2.09554e-05 -2.7991e-05)