/*--------------------------------*- C++ -*----------------------------------*\
| =========                 |                                                 |
| \\      /  F ield         | OpenFOAM: The Open Source CFD Toolbox           |
|  \\    /   O peration     | Version:  2406                                  |
|   \\  /    A nd           | Website:  www.openfoam.com                      |
|    \\/     M anipulation  |                                                 |
\*---------------------------------------------------------------------------*/
FoamFile
{
    version     2.0;
    format      ascii;
    arch        "LSB;label=32;scalar=64";
    class       volVectorField;
    location    "100";
    object      flux;
}
// * * * * * * * * * * * * * * * * * * * * * * * * * * * * * * * * * * * * * //

dimensions      [0 1 -1 1 0 0 0];

internalField   nonuniform List<vector> 
100
(
(-1209.32 513.864 -2.22853e-15)
(-441.094 301.664 0)
(-260.369 199.89 -8.66884e-16)
(-171.827 138.005 5.98501e-16)
(-117.024 94.3489 4.09173e-16)
(-78.5916 62.3254 0)
(-50.9914 39.4085 1.70907e-16)
(-31.6728 23.6931 -1.02753e-16)
(-18.7029 13.1047 0)
(-11.7828 5.07625 2.20147e-17)
(-657.992 168.982 2.22853e-15)
(-330.652 156.107 -1.98527e-15)
(-224.759 121.578 8.66884e-16)
(-158.018 86.2995 -5.98501e-16)
(-109.761 56.7562 2.46141e-16)
(-73.5472 34.873 4.21531e-16)
(-47.1499 20.1006 -1.70907e-16)
(-29.0004 10.6762 -4.63006e-17)
(-17.6093 4.59056 7.67411e-17)
(-11.8307 0.356309 -2.20147e-17)
(-462.842 92.47 0)
(-281.698 94.8658 1.98527e-15)
(-202.736 72.4495 1.70835e-15)
(-145.08 46.4355 0)
(-99.8468 25.7455 -6.55314e-16)
(-65.3257 12.4038 -4.21531e-16)
(-40.7395 4.95984 0)
(-24.6262 1.13656 1.49053e-16)
(-15.1608 -0.757196 -7.67411e-17)
(-10.5415 -1.11193 1.87378e-17)
(-353.92 52.2453 0)
(-247.468 52.9026 0)
(-183.941 32.3304 1.40211e-16)
(-130.362 11.9392 0)
(-86.6635 -0.372844 7.65351e-16)
(-54.2385 -5.22142 0)
(-32.4591 -5.85749 2.54187e-16)
(-19.1581 -4.88315 1.32805e-16)
(-11.8384 -3.42881 5.85871e-17)
(-8.18487 -1.42043 -1.87378e-17)
(-294.059 28.8343 0)
(-224.837 18.09 0)
(-166.207 -5.0425 -1.84856e-15)
(-112.354 -18.994 0)
(-69.926 -21.336 -9.25301e-17)
(-40.9288 -17.4777 3.76882e-16)
(-23.2204 -12.2209 -2.54187e-16)
(-13.3524 -7.70853 -1.32805e-16)
(-8.25464 -4.20066 -5.85871e-17)
(-5.55437 -1.24982 7.15744e-18)
(-266.129 11.3786 0)
(-209.207 -19.235 -2.62114e-15)
(-145.332 -43.3626 1.63863e-15)
(-89.0908 -45.6251 0)
(-49.8816 -35.6384 -6.72821e-16)
(-26.6023 -23.7425 -3.76882e-16)
(-14.1876 -14.3599 1.38911e-16)
(-8.02589 -7.99507 6.47015e-17)
(-5.02367 -3.78485 2.39555e-17)
(-3.25906 -0.895759 -7.15744e-18)
(-261.896 -11.1848 0)
(-192.425 -69.0631 2.62114e-15)
(-115.538 -82.1021 -3.56061e-16)
(-59.5298 -64.094 0)
(-28.1306 -41.2487 0)
(-13.1375 -23.9905 1.69873e-16)
(-6.60063 -13.0933 -1.38911e-16)
(-3.85097 -6.63497 -6.47015e-17)
(-2.56026 -2.79573 -2.39555e-17)
(-1.5983 -0.525284 0)
(-269.847 -65.152 0)
(-160.022 -139.337 0)
(-71.7299 -111.996 -1.28257e-15)
(-25.612 -68.2505 0)
(-8.06935 -37.3472 0)
(-2.69458 -19.4949 -1.69873e-16)
(-1.37584 -9.81609 3.95571e-17)
(-1.14104 -4.58232 1.60542e-17)
(-0.989826 -1.70901 0)
(-0.603592 -0.230217 -3.75307e-21)
(-237.818 -239.751 0)
(-97.5462 -210.786 -8.03215e-16)
(-14.2315 -112.322 0)
(5.76249 -54.7376 0)
(5.8518 -26.4755 0)
(3.25861 -12.8555 2.95758e-17)
(1.31089 -6.09231 -3.95571e-17)
(0.224925 -2.60378 -1.12921e-17)
(-0.191752 -0.812138 8.97252e-19)
(-0.141805 -0.0425519 3.75307e-21)
(-233.851 -551.685 0)
(13.2787 -185.209 8.03215e-16)
(43.7457 -71.4228 0)
(22.9622 -30.9778 0)
(10.8977 -14.4321 0)
(5.01344 -6.81971 -2.95758e-17)
(2.08872 -3.02893 0)
(0.654889 -1.09807 -4.76213e-18)
(0.0692927 -0.206892 -8.97252e-19)
(-0.0225359 0.0434173 0)
)
;

boundaryField
{
    north
    {
        type            calculated;
        value           nonuniform List<vector> 10((335.992 -1121.53 0) (43.1295 -215.06 8.03215e-16) (27.2015 -54.8787 0) (14.378 -22.3937 0) (7.21023 -10.7447 0) (3.34498 -5.15126 -2.95758e-17) (1.28225 -2.22246 0) (0.265656 -0.708839 -4.76213e-18) (-0.0891742 -0.0484254 -8.97252e-19) (-0.0527105 0.0735919 1.30861e-19));
    }
    south
    {
        type            calculated;
        value           nonuniform List<vector> 10((-1155.9 460.437 -2.22853e-15) (-479.703 340.273 0) (-280.689 220.21 -8.66884e-16) (-184.984 151.162 5.98501e-16) (-126.497 103.822 4.09173e-16) (-85.5069 69.2407 0) (-55.8863 44.3035 1.70907e-16) (-35.0322 27.0526 -1.02753e-16) (-20.9754 15.3773 0) (-12.0031 5.29657 2.20147e-17));
    }
    west
    {
        type            calculated;
        value           nonuniform List<vector> 10((-1191.83 513.864 -2.22853e-15) (-752.712 168.982 2.22853e-15) (-515.906 92.47 0) (-382.832 52.2453 0) (-306.925 28.8343 0) (-267.495 11.3786 0) (-261.411 -11.1848 0) (-312.235 -65.152 0) (-522.019 -239.751 0) (-1271.24 -551.685 0));
    }
    east
    {
        type            calculated;
        value           nonuniform List<vector> 10((-8.64985 5.07625 2.20147e-17) (-11.6552 0.356309 -2.20147e-17) (-10.0751 -1.11193 1.87378e-17) (-7.20746 -1.42043 -1.87378e-17) (-4.39339 -1.24982 7.15744e-18) (-2.20819 -0.895759 -7.15744e-18) (-0.810349 -0.525284 0) (-0.107056 -0.230217 -3.75307e-21) (0.110518 -0.0425519 3.75307e-21) (0.0631512 0.0434173 0));
    }
    top
    {
        type            empty;
    }
    bottom
    {
        type            empty;
    }
}


// ************************************************************************* //
