/*--------------------------------*- C++ -*----------------------------------*\
| =========                 |                                                 |
| \\      /  F ield         | OpenFOAM: The Open Source CFD Toolbox           |
|  \\    /   O peration     | Version:  2406                                  |
|   \\  /    A nd           | Website:  www.openfoam.com                      |
|    \\/     M anipulation  |                                                 |
\*---------------------------------------------------------------------------*/
FoamFile
{
    version     2.0;
    format      ascii;
    arch        "LSB;label=32;scalar=64";
    class       volScalarField;
    location    "100";
    object      gradTy;
}
// * * * * * * * * * * * * * * * * * * * * * * * * * * * * * * * * * * * * * //

dimensions      [0 -1 0 1 0 0 0];

internalField   nonuniform List<scalar> 
100
(
513.864
301.664
199.89
138.005
94.3489
62.3254
39.4085
23.6931
13.1047
5.07625
168.982
156.107
121.578
86.2995
56.7562
34.873
20.1006
10.6762
4.59056
0.356309
92.47
94.8658
72.4495
46.4355
25.7455
12.4038
4.95984
1.13656
-0.757196
-1.11193
52.2453
52.9026
32.3304
11.9392
-0.372844
-5.22142
-5.85749
-4.88315
-3.42881
-1.42043
28.8343
18.09
-5.0425
-18.994
-21.336
-17.4777
-12.2209
-7.70853
-4.20066
-1.24982
11.3786
-19.235
-43.3626
-45.6251
-35.6384
-23.7425
-14.3599
-7.99507
-3.78485
-0.895759
-11.1848
-69.0631
-82.1021
-64.094
-41.2487
-23.9905
-13.0933
-6.63497
-2.79573
-0.525284
-65.152
-139.337
-111.996
-68.2505
-37.3472
-19.4949
-9.81609
-4.58232
-1.70901
-0.230217
-239.751
-210.786
-112.322
-54.7376
-26.4755
-12.8555
-6.09231
-2.60378
-0.812138
-0.0425519
-551.685
-185.209
-71.4228
-30.9778
-14.4321
-6.81971
-3.02893
-1.09807
-0.206892
0.0434173
)
;

boundaryField
{
    north
    {
        type            calculated;
        value           nonuniform List<scalar> 10(-1121.53 -215.06 -54.8787 -22.3937 -10.7447 -5.15126 -2.22246 -0.708839 -0.0484254 0.0735919);
    }
    south
    {
        type            calculated;
        value           nonuniform List<scalar> 10(460.437 340.273 220.21 151.162 103.822 69.2407 44.3035 27.0526 15.3773 5.29657);
    }
    west
    {
        type            calculated;
        value           nonuniform List<scalar> 10(513.864 168.982 92.47 52.2453 28.8343 11.3786 -11.1848 -65.152 -239.751 -551.685);
    }
    east
    {
        type            calculated;
        value           nonuniform List<scalar> 10(5.07625 0.356309 -1.11193 -1.42043 -1.24982 -0.895759 -0.525284 -0.230217 -0.0425519 0.0434173);
    }
    top
    {
        type            empty;
    }
    bottom
    {
        type            empty;
    }
}


// ************************************************************************* //
