/*--------------------------------*- C++ -*----------------------------------*\
| =========                 |                                                 |
| \\      /  F ield         | OpenFOAM: The Open Source CFD Toolbox           |
|  \\    /   O peration     | Version:  2406                                  |
|   \\  /    A nd           | Website:  www.openfoam.com                      |
|    \\/     M anipulation  |                                                 |
\*---------------------------------------------------------------------------*/
FoamFile
{
    version     2.0;
    format      ascii;
    arch        "LSB;label=32;scalar=64";
    class       volScalarField;
    location    "100";
    object      gradTx;
}
// * * * * * * * * * * * * * * * * * * * * * * * * * * * * * * * * * * * * * //

dimensions      [0 -1 0 1 0 0 0];

internalField   nonuniform List<scalar> 
100
(
-1209.32
-441.094
-260.369
-171.827
-117.024
-78.5916
-50.9914
-31.6728
-18.7029
-11.7828
-657.992
-330.652
-224.759
-158.018
-109.761
-73.5472
-47.1499
-29.0004
-17.6093
-11.8307
-462.842
-281.698
-202.736
-145.08
-99.8468
-65.3257
-40.7395
-24.6262
-15.1608
-10.5415
-353.92
-247.468
-183.941
-130.362
-86.6635
-54.2385
-32.4591
-19.1581
-11.8384
-8.18487
-294.059
-224.837
-166.207
-112.354
-69.926
-40.9288
-23.2204
-13.3524
-8.25464
-5.55437
-266.129
-209.207
-145.332
-89.0908
-49.8816
-26.6023
-14.1876
-8.02589
-5.02367
-3.25906
-261.896
-192.425
-115.538
-59.5298
-28.1306
-13.1375
-6.60063
-3.85097
-2.56026
-1.5983
-269.847
-160.022
-71.7299
-25.612
-8.06935
-2.69458
-1.37584
-1.14104
-0.989826
-0.603592
-237.818
-97.5462
-14.2315
5.76249
5.8518
3.25861
1.31089
0.224925
-0.191752
-0.141805
-233.851
13.2787
43.7457
22.9622
10.8977
5.01344
2.08872
0.654889
0.0692927
-0.0225359
)
;

boundaryField
{
    north
    {
        type            calculated;
        value           nonuniform List<scalar> 10(335.992 43.1295 27.2015 14.378 7.21023 3.34498 1.28225 0.265656 -0.0891742 -0.0527105);
    }
    south
    {
        type            calculated;
        value           nonuniform List<scalar> 10(-1155.9 -479.703 -280.689 -184.984 -126.497 -85.5069 -55.8863 -35.0322 -20.9754 -12.0031);
    }
    west
    {
        type            calculated;
        value           nonuniform List<scalar> 10(-1191.83 -752.712 -515.906 -382.832 -306.925 -267.495 -261.411 -312.235 -522.019 -1271.24);
    }
    east
    {
        type            calculated;
        value           nonuniform List<scalar> 10(-8.64985 -11.6552 -10.0751 -7.20746 -4.39339 -2.20819 -0.810349 -0.107056 0.110518 0.0631512);
    }
    top
    {
        type            empty;
    }
    bottom
    {
        type            empty;
    }
}


// ************************************************************************* //
