/*--------------------------------*- C++ -*----------------------------------*\
| =========                 |                                                 |
| \\      /  F ield         | OpenFOAM: The Open Source CFD Toolbox           |
|  \\    /   O peration     | Version:  2406                                  |
|   \\  /    A nd           | Website:  www.openfoam.com                      |
|    \\/     M anipulation  |                                                 |
\*---------------------------------------------------------------------------*/
FoamFile
{
    version     2.0;
    format      ascii;
    arch        "LSB;label=32;scalar=64";
    class       volScalarField;
    location    "100";
    object      gradTz;
}
// * * * * * * * * * * * * * * * * * * * * * * * * * * * * * * * * * * * * * //

dimensions      [0 -1 0 1 0 0 0];

internalField   nonuniform List<scalar> 
100
(
-2.22853e-15
0
-8.66884e-16
5.98501e-16
4.09173e-16
0
1.70907e-16
-1.02753e-16
0
2.20147e-17
2.22853e-15
-1.98527e-15
8.66884e-16
-5.98501e-16
2.46141e-16
4.21531e-16
-1.70907e-16
-4.63006e-17
7.67411e-17
-2.20147e-17
0
1.98527e-15
1.70835e-15
0
-6.55314e-16
-4.21531e-16
0
1.49053e-16
-7.67411e-17
1.87378e-17
0
0
1.40211e-16
0
7.65351e-16
0
2.54187e-16
1.32805e-16
5.85871e-17
-1.87378e-17
0
0
-1.84856e-15
0
-9.25301e-17
3.76882e-16
-2.54187e-16
-1.32805e-16
-5.85871e-17
7.15744e-18
0
-2.62114e-15
1.63863e-15
0
-6.72821e-16
-3.76882e-16
1.38911e-16
6.47015e-17
2.39555e-17
-7.15744e-18
0
2.62114e-15
-3.56061e-16
0
0
1.69873e-16
-1.38911e-16
-6.47015e-17
-2.39555e-17
0
0
0
-1.28257e-15
0
0
-1.69873e-16
3.95571e-17
1.60542e-17
0
-3.75307e-21
0
-8.03215e-16
0
0
0
2.95758e-17
-3.95571e-17
-1.12921e-17
8.97252e-19
3.75307e-21
0
8.03215e-16
0
0
0
-2.95758e-17
0
-4.76213e-18
-8.97252e-19
0
)
;

boundaryField
{
    north
    {
        type            calculated;
        value           nonuniform List<scalar> 10(0 8.03215e-16 0 0 0 -2.95758e-17 0 -4.76213e-18 -8.97252e-19 1.30861e-19);
    }
    south
    {
        type            calculated;
        value           nonuniform List<scalar> 10(-2.22853e-15 0 -8.66884e-16 5.98501e-16 4.09173e-16 0 1.70907e-16 -1.02753e-16 0 2.20147e-17);
    }
    west
    {
        type            calculated;
        value           nonuniform List<scalar> 10(-2.22853e-15 2.22853e-15 0 0 0 0 0 0 0 0);
    }
    east
    {
        type            calculated;
        value           nonuniform List<scalar> 10(2.20147e-17 -2.20147e-17 1.87378e-17 -1.87378e-17 7.15744e-18 -7.15744e-18 0 -3.75307e-21 3.75307e-21 0);
    }
    top
    {
        type            empty;
    }
    bottom
    {
        type            empty;
    }
}


// ************************************************************************* //
