/*--------------------------------*- C++ -*----------------------------------*\
| =========                 |                                                 |
| \\      /  F ield         | OpenFOAM: The Open Source CFD Toolbox           |
|  \\    /   O peration     | Version:  2406                                  |
|   \\  /    A nd           | Website:  www.openfoam.com                      |
|    \\/     M anipulation  |                                                 |
\*---------------------------------------------------------------------------*/
FoamFile
{
    version     2.0;
    format      ascii;
    arch        "LSB;label=32;scalar=64";
    class       volScalarField;
    location    "100";
    object      T;
}
// * * * * * * * * * * * * * * * * * * * * * * * * * * * * * * * * * * * * * //

dimensions      [0 0 0 1 0 0 0];

internalField   nonuniform List<scalar> 
100
(
40.4084
20.4994
12.5225
8.40365
5.75799
3.86869
2.50474
1.55212
0.908819
0.432493
62.3644
39.8334
27.4555
19.1973
13.1118
8.59638
5.37696
3.18651
1.71213
0.582758
74.2047
51.7208
36.8382
25.6635
17.1092
10.8433
6.52486
3.68736
1.82693
0.503754
80.8584
58.8066
41.9454
28.4844
18.2609
11.0771
6.36893
3.41382
1.56069
0.360373
84.6537
62.3013
43.3043
28.0514
17.0347
9.799
5.35336
2.71073
1.14117
0.219669
86.6252
62.4246
40.9369
24.6856
13.9937
7.5816
3.92474
1.87211
0.720554
0.11041
86.9294
58.4543
34.6318
18.9264
9.90698
5.05051
2.48139
1.11172
0.384198
0.0405174
84.3883
48.612
24.5165
11.8668
5.74397
2.7835
1.30608
0.545119
0.161409
0.00535282
73.899
30.587
12.2326
5.27627
2.43755
1.15154
0.518169
0.195252
0.0423972
-0.0055259
36.438
6.45473
2.05201
0.919293
0.448873
0.212406
0.0876178
0.0243624
-0.00101872
-0.00315756
)
;

boundaryField
{
    north
    {
        type            fixedValue;
        value           uniform 0;
    }
    south
    {
        type            fixedValue;
        value           uniform 0;
    }
    west
    {
        type            fixedValue;
        value           uniform 100;
    }
    east
    {
        type            fixedValue;
        value           uniform 0;
    }
    top
    {
        type            empty;
    }
    bottom
    {
        type            empty;
    }
}


// ************************************************************************* //
