eta,f,g,h
0.0,0.0,0.0,1.23239
0.5,0.13348,0.49462,0.75845
1.0,0.45903,0.77782,0.39825
1.5,0.88706,0.91614,0.17718
2.0,1.36167,0.9732,0.06596
2.5,1.85412,0.99285,0.02029
3.0,2.35224,0.99842,0.0051
3.5,2.85186,0.99972,0.00104
4.0,3.35179,0.99996,0.00017
4.5,3.85178,1.0,2e-05
5.0,4.35178,1.0,0.0
5.5,4.85178,1.0,0.0
6.0,5.35178,1.0,0.0
6.5,5.85178,1.0,0.0
7.0,6.35178,1.0,0.0
7.5,6.85178,1.0,0.0
8.0,7.35178,1.0,0.0
8.5,7.85178,1.0,0.0
9.0,8.35178,1.0,0.0
9.5,8.85178,1.0,0.0
10.0,9.35178,1.0,0.0
