eta,f,g,h
0.0,0.0,0.0,1.71443
0.5,0.17405,0.62189,0.82211
1.0,0.5618,0.88627,0.30046
1.5,1.03103,0.97311,0.08461
2.0,1.52442,0.9951,0.01811
2.5,2.02333,0.99933,0.00289
3.0,2.52319,0.99993,0.00034
3.5,3.02318,0.99999,3e-05
4.0,3.52318,1.0,0.0
4.5,4.02318,1.0,0.0
5.0,4.52318,1.0,0.0
5.5,5.02318,1.0,0.0
6.0,5.52318,1.0,0.0
6.5,6.02318,1.0,0.0
7.0,6.52318,1.0,0.0
7.5,7.02318,1.0,0.0
8.0,7.52318,1.0,0.0
8.5,8.02318,1.0,0.0
9.0,8.52318,1.0,0.0
9.5,9.02318,1.0,0.0
10.0,9.52318,1.0,-0.0
